                  Welcome to Q-Chem
     A Quantum Leap Into The Future Of Chemistry

 Y. Shao, L. Fusti-Molnar, Y. Jung, J. Kussmann, C. Ochsenfeld, S. T. Brown, 
 A. T. B. Gilbert, L. V. Slipchenko, S. V. Levchenko, D. P. O'Neill, 
 R. A. DiStasio Jr., R. C. Lochan, T. Wang, G. J. O. Beran, N. A. Besley, 
 J. M. Herbert, C. Y. Lin, T. Van Voorhis, S. H. Chien, A. Sodt, R. P. Steele, 
 V. A. Rassolov, P. E. Maslen, P. P. Korambath, R. D. Adamson, B. Austin, 
 J. Baker, E. F. C. Byrd, H. Dachsel, R. J. Doerksen, A. Dreuw, B. D. Dunietz, 
 A. D. Dutoi, T. R. Furlani, S. R. Gwaltney, A. Heyden, S. Hirata, C.-P. Hsu, 
 G. Kedziora, R. Z. Khaliullin, P. Klunzinger, A. M. Lee, M. S. Lee, W. Liang, 
 I. Lotan, N. Nair, B. Peters, E. I. Proynov, P. A. Pieniazek, Y. M. Rhee, 
 J. Ritchie, E. Rosta, C. D. Sherrill, A. C. Simmonett, J. E. Subotnik, 
 H. L. Woodcock III, W. Zhang, A. T. Bell, A. K. Chakraborty, D. M. Chipman, 
 F. J. Keil, A. Warshel, W. J. Hehre, H. F. Schaefer III, J. Kong, 
 A. I. Krylov, P. M. W. Gill, M. Head-Gordon

 Additional authors for Version 3.1: 
 Z. Gan, Y. Zhao, N. E. Schultz, D. Truhlar, E. Epifanovsky, M. Oana

 Additional authors for Version 3.2: 
 R. Baer, B. R. Brooks, D. Casanova, J.-D. Chai, C.-L. Cheng, C. Cramer, 
 D. Crittenden, A. Ghysels, G. Hawkins, E. G. Hohenstein, C. Kelley, 
 W. Kurlancheek, D. Liotard, E. Livshits, P. Manohar, A. Marenich, 
 D. Neuhauser, R. Olson, M. A. Rohrdanz, K. S. Thanthiriwatte, A. J. W. Thom, 
 V. Vanovschi, C. F. Williams, Q. Wu, Z.-Q. You

 Additional authors for Version 4.0: 
 A. Aspuru-Guzik, Y. Bernard, C. Chang, J. Deng, A. Dreuw, M. Diedenhofen, 
 R. G. Edgar, D. Ghosh, W. A. Goddard III, M. Goldey, L. D. Jacobson, 
 M. Gordon, B. Kaduk, I. Kaliman, K. Khistyaev, R. King, A. Klamt, 
 D. Kosenkov, T. Kus, D. Lambrecht, A. Landau, A. W. Lange, K. Lawler, F. Liu, 
 J. Liu, R. Olivares-Amaya, S. P. Mao, J. Parkhill, N. Russ, M. Schmidt, 
 N. Shenvi, D. Small, Y. C. Su, E. Sundstrom, L. Vogt, O. Vydrov, M. Watson, 
 M. Wormit, X. Xu, S. Yeganeh, I. Y. Zhang, D. Zuev

 Additional authors for Version 4.1: 
 X. Feng, M. W. D. Hanson-Heine, P. Horn, H. Ji, A. Laurent, R. Peverati, 
 N. Mardirossian, N. Sergueev, S. Sharada, P. Zimmerman

 Q-Chem, Version 4.1, Q-Chem, Inc., Pittsburgh, PA (2013).

 Parts of Q-Chem use Armadillo 3.6.2 (Piazza del Duomo).
 http://arma.sourceforge.net/

 Intel X86 EM64T Linux Version 4.1.2

 Q-chem begins on Sat Apr 19 09:24:51 2014  

Host: 
0

     Scratch files written to ./qchem27545//
 Mar714 |home|leeping|src -1
 Using version located at /home/leeping/opt/qchem-4.2/bin/qchem


Total Memory Limit in MB = 2000
Mega-Array Size in MB = 62
Finally everything over in PARseQInput

--------------------------------------------------------------
User input:
--------------------------------------------------------------

$molecule
read
$end

$rem
jobtype freq
exchange hf
basis 3-21g
symmetry off
sym_ignore true
$end
--------------------------------------------------------------
 ----------------------------------------------------------------
             Standard Nuclear Orientation (Angstroms)
    I     Atom           X                Y                Z
 ----------------------------------------------------------------
    1      H       3.2297461235    -0.7215266627    -1.9281348956
    2      C       3.0002455764    -0.7271526473    -0.8745680938
    3      H       3.8174763359    -0.2794098632    -0.3213351753
    4      H       2.8757741384    -1.7503653460    -0.5378390457
    5      C       1.7235924669     0.0538661681    -0.6506449746
    6      O       1.0891661046     0.5736077911    -1.5621440257
    7      N       1.3235417470     0.1389168077     0.6367958046
    8      H       1.8195842153    -0.3493579590     1.3497497140
    9      C       0.1533722579     0.9288935152     1.0281766084
   10      H       0.1250356257     1.8199257604     0.4173561309
   11      H       0.2428832586     1.1960043342     2.0680091051
   12      C      -1.1541868434     0.1548083807     0.8624013083
   13      O      -1.8505942449    -0.1536978583     1.8161371041
   14      N      -1.4616684609    -0.1391440224    -0.4125780138
   15      H      -0.8405343191     0.1496669469    -1.1416699436
   16      C      -2.6764978121    -0.8866112352    -0.7237107391
   17      H      -2.7378376732    -1.0124958785    -1.7950766983
   18      H      -3.5540815452    -0.3564994838    -0.3765364480
   19      H      -2.6643905636    -1.8605522826    -0.2505925018
 ----------------------------------------------------------------
 Nuclear Repulsion Energy =   467.2210111054 hartrees
 There are       35 alpha and       35 beta electrons
 Requested basis set is 3-21G
 There are 47 shells and 101 basis functions

Total QAlloc Memory Limit   2000 MB
Mega-Array Size        61 MB
MEM_STATIC part        62 MB

finished with qalloc call
 Job number = 2, Threshold = 1.00E-11
Integral type ranges set in mkLRange.C for JobNum: 2  <1-6|1-6>
Symmetry turned off temporarily
 Using the largest function pair in Schwarz integrals
Total number of integrals generated =           48430
Symmetry turned back on
 A cutoff of  1.0D-11 yielded    925 shell pairs
 There are      4666 function pairs
 Job number = 11, Threshold = 1.00E-11
Integral type ranges set in mkLRange.C for JobNum: 11  <1-6|7-7>
Total number of integrals generated =           88654
 Smallest overlap matrix eigenvalue = 1.13E-02
 Multipole matrices computed through 2nd order
 Guess from superposition of atomic densities
 Warning:  Energy on first SCF cycle will be non-variational
scfman initvdwdat 
 A restricted Hartree-Fock SCF calculation will be
 performed using Pulay DIIS extrapolation
 SCF converges when DIIS error is below 1.0E-08
Using Integral Screening
Finding J and K together
 ML is being used
 Job number = 22, Threshold = 1.00E-11
Integral type ranges set in mkLRange.C for JobNum: 22  <1-6|1-6>
Total number of integrals generated =         4550050
Fock build time:  0.20 s (CPU) 0.20 s (wall)
DIIS Errors:  Max 1.22E+00 RMS 1.04E-01

Current DIIS subspace size = 1
REM_GRID_RESTART_DIIS = 0

 ---------------------------------------
  Cycle       Energy         DIIS Error
 ---------------------------------------
    1    -454.4015216000      1.04E-01  00000
Ite = 2 IFIte = 1 Thresh = 1.00e-11
Finding J and K together
 Job number = 22, Threshold = 1.00E-11
Integral type ranges set in mkLRange.C for JobNum: 22  <1-6|1-6>
Total number of integrals generated =        10327786
Fock build time:  0.34 s (CPU) 0.34 s (wall)
DIIS Errors:  Max 1.64E-01 RMS 1.24E-02

Current DIIS subspace size = 2
REM_GRID_RESTART_DIIS = 0

    2    -451.0925251288      1.24E-02  00000
Ite = 3 IFIte = 2 Thresh = 1.00e-11
Using dP: JK
Finding J and K together
 ML is being used
 Job number = 22, Threshold = 1.00E-11
Integral type ranges set in mkLRange.C for JobNum: 22  <1-6|1-6>
Total number of integrals generated =         9434280
Fock build time:  0.35 s (CPU) 0.35 s (wall)
DIIS Errors:  Max 1.65E-01 RMS 9.83E-03

Current DIIS subspace size = 3
REM_GRID_RESTART_DIIS = 0

    3    -451.2049379470      9.83E-03  00000
Ite = 4 IFIte = 3 Thresh = 1.00e-11
Using dP: JK
Finding J and K together
 ML is being used
 Job number = 22, Threshold = 1.00E-11
Integral type ranges set in mkLRange.C for JobNum: 22  <1-6|1-6>
Total number of integrals generated =         9208780
Fock build time:  0.34 s (CPU) 0.34 s (wall)
DIIS Errors:  Max 1.12E-02 RMS 9.27E-04

Current DIIS subspace size = 4
REM_GRID_RESTART_DIIS = 0

    4    -451.2912579190      9.27E-04  00000
Ite = 5 IFIte = 4 Thresh = 1.00e-11
Using dP: JK
Finding J and K together
 ML is being used
 Job number = 22, Threshold = 1.00E-11
Integral type ranges set in mkLRange.C for JobNum: 22  <1-6|1-6>
Total number of integrals generated =         8836184
Fock build time:  0.33 s (CPU) 0.33 s (wall)
DIIS Errors:  Max 5.05E-03 RMS 3.88E-04

Current DIIS subspace size = 5
REM_GRID_RESTART_DIIS = 0

    5    -451.2936104505      3.88E-04  00000
Ite = 6 IFIte = 5 Thresh = 1.00e-11
Using dP: JK
Finding J and K together
 ML is being used
 Job number = 22, Threshold = 1.00E-11
Integral type ranges set in mkLRange.C for JobNum: 22  <1-6|1-6>
Total number of integrals generated =         8508405
Fock build time:  0.32 s (CPU) 0.31 s (wall)
DIIS Errors:  Max 2.08E-03 RMS 1.52E-04

Current DIIS subspace size = 6
REM_GRID_RESTART_DIIS = 0

    6    -451.2939407850      1.52E-04  00000
Ite = 7 IFIte = 6 Thresh = 1.00e-11
Using dP: JK
Finding J and K together
 ML is being used
 Job number = 22, Threshold = 1.00E-11
Integral type ranges set in mkLRange.C for JobNum: 22  <1-6|1-6>
Total number of integrals generated =         8413130
Fock build time:  0.31 s (CPU) 0.31 s (wall)
DIIS Errors:  Max 1.02E-03 RMS 6.62E-05

Current DIIS subspace size = 7
REM_GRID_RESTART_DIIS = 0

    7    -451.2940533253      6.62E-05  00000
Ite = 8 IFIte = 7 Thresh = 1.00e-11
Using dP: JK
Finding J and K together
 ML is being used
 Job number = 22, Threshold = 1.00E-11
Integral type ranges set in mkLRange.C for JobNum: 22  <1-6|1-6>
Total number of integrals generated =         8093194
Fock build time:  0.30 s (CPU) 0.30 s (wall)
DIIS Errors:  Max 4.58E-04 RMS 2.12E-05

Current DIIS subspace size = 8
REM_GRID_RESTART_DIIS = 0

    8    -451.2940678699      2.12E-05  00000
Ite = 9 IFIte = 8 Thresh = 1.00e-11
Using dP: JK
Finding J and K together
 ML is being used
 Job number = 22, Threshold = 1.00E-11
Integral type ranges set in mkLRange.C for JobNum: 22  <1-6|1-6>
Total number of integrals generated =         7628680
Fock build time:  0.27 s (CPU) 0.27 s (wall)
DIIS Errors:  Max 1.36E-04 RMS 6.94E-06

Current DIIS subspace size = 9
REM_GRID_RESTART_DIIS = 0

    9    -451.2940690496      6.94E-06  00000
Ite = 10 IFIte = 9 Thresh = 1.00e-11
Using dP: JK
Finding J and K together
 ML is being used
 Job number = 22, Threshold = 1.00E-11
Integral type ranges set in mkLRange.C for JobNum: 22  <1-6|1-6>
Total number of integrals generated =         7015116
Fock build time:  0.25 s (CPU) 0.25 s (wall)
DIIS Errors:  Max 3.39E-05 RMS 2.41E-06

Current DIIS subspace size = 10
REM_GRID_RESTART_DIIS = 0

   10    -451.2940691290      2.41E-06  00000
Ite = 11 IFIte = 10 Thresh = 1.00e-11
Using dP: JK
Finding J and K together
 ML is being used
 Job number = 22, Threshold = 1.00E-11
Integral type ranges set in mkLRange.C for JobNum: 22  <1-6|1-6>
Total number of integrals generated =         6624171
Fock build time:  0.25 s (CPU) 0.25 s (wall)
DIIS Errors:  Max 6.23E-06 RMS 5.26E-07

Current DIIS subspace size = 11
REM_GRID_RESTART_DIIS = 0

   11    -451.2940691398      5.26E-07  00000
Ite = 12 IFIte = 11 Thresh = 1.00e-11
Using dP: JK
Finding J and K together
 ML is being used
 Job number = 22, Threshold = 1.00E-11
Integral type ranges set in mkLRange.C for JobNum: 22  <1-6|1-6>
Total number of integrals generated =         6120344
Fock build time:  0.23 s (CPU) 0.23 s (wall)
DIIS Errors:  Max 2.34E-06 RMS 1.64E-07

Current DIIS subspace size = 12
REM_GRID_RESTART_DIIS = 0

   12    -451.2940691408      1.64E-07  00000
Ite = 13 IFIte = 12 Thresh = 1.00e-11
Using dP: JK
Finding J and K together
 ML is being used
 Job number = 22, Threshold = 1.00E-11
Integral type ranges set in mkLRange.C for JobNum: 22  <1-6|1-6>
Total number of integrals generated =         5531028
Fock build time:  0.20 s (CPU) 0.20 s (wall)
DIIS Errors:  Max 1.09E-06 RMS 6.30E-08
 Singularity in Pulay DIIS matrix

Current DIIS subspace size = 13
REM_GRID_RESTART_DIIS = 0

NextCycle: DoReset = 1
   13    -451.2940691410      6.30E-08  00000
Ite = 14 IFIte = 13 Thresh = 1.00e-11
Using dP: JK
Finding J and K together
 ML is being used
 Job number = 22, Threshold = 1.00E-11
Integral type ranges set in mkLRange.C for JobNum: 22  <1-6|1-6>
Total number of integrals generated =         4982523
Fock build time:  0.19 s (CPU) 0.19 s (wall)
DIIS Errors:  Max 6.71E-07 RMS 3.71E-08

Current DIIS subspace size = 2
REM_GRID_RESTART_DIIS = 0

   14    -451.2940691410      3.71E-08  00000
Ite = 15 IFIte = 14 Thresh = 1.00e-11
Using dP: JK
Finding J and K together
 ML is being used
 Job number = 22, Threshold = 1.00E-11
Integral type ranges set in mkLRange.C for JobNum: 22  <1-6|1-6>
Total number of integrals generated =         4913326
Fock build time:  0.19 s (CPU) 0.19 s (wall)
DIIS Errors:  Max 4.30E-07 RMS 1.85E-08

Current DIIS subspace size = 3
REM_GRID_RESTART_DIIS = 0

   15    -451.2940691411      1.85E-08  00000
Ite = 16 IFIte = 0 Thresh = 1.00e-11
Finding J and K together
 Job number = 22, Threshold = 1.00E-11
Integral type ranges set in mkLRange.C for JobNum: 22  <1-6|1-6>
Total number of integrals generated =        10327786
Fock build time:  0.35 s (CPU) 0.35 s (wall)
DIIS Errors:  Max 1.53E-07 RMS 5.90E-09

Current DIIS subspace size = 4
REM_GRID_RESTART_DIIS = 0

   16    -451.2940691414      5.90E-09  00000 Convergence criterion met
 ---------------------------------------
 SCF time:  CPU 4.51 s  wall 4.53 s
 SCF   energy in the final basis set = -451.2940691414
 Total energy in the final basis set = -451.2940691414
Symmetry turned off temporarily
 Analysis of SCF Wavefunction
 
 --------------------------------------------------------------
                    Orbital Energies (a.u.)
 --------------------------------------------------------------
 
 Alpha MOs
 -- Occupied --
-20.437 -20.405 -15.525 -15.483 -11.319 -11.283 -11.221 -11.191
-11.189  -1.410  -1.379  -1.249  -1.212  -1.046  -0.985  -0.927
 -0.811  -0.772  -0.722  -0.701  -0.670  -0.631  -0.628  -0.610
 -0.586  -0.578  -0.566  -0.557  -0.536  -0.530  -0.504  -0.435
 -0.425  -0.377  -0.363
 -- Virtual --
  0.179   0.208   0.247   0.290   0.299   0.309   0.323   0.334
  0.345   0.349   0.371   0.388   0.412   0.430   0.466   0.488
  0.569   0.615   0.628   0.678   0.915   0.919   0.940   0.956
  0.961   0.964   0.980   0.991   1.032   1.043   1.082   1.092
  1.132   1.200   1.231   1.244   1.307   1.314   1.320   1.338
  1.344   1.390   1.423   1.449   1.463   1.481   1.569   1.593
  1.632   1.750   1.866   1.924   1.939   1.976   1.989   2.018
  2.072   2.089   2.116   2.174   2.226   2.463   2.953   3.057
  3.687   3.755
 --------------------------------------------------------------
 
          Ground-State Mulliken Net Atomic Charges

     Atom                 Charge (a.u.)
  ----------------------------------------
      1 H                     0.263720
      2 C                    -0.684756
      3 H                     0.239148
      4 H                     0.239608
      5 C                     0.857412
      6 O                    -0.654686
      7 N                    -0.888494
      8 H                     0.368251
      9 C                    -0.269595
     10 H                     0.266643
     11 H                     0.263089
     12 C                     0.867869
     13 O                    -0.645730
     14 N                    -0.928304
     15 H                     0.398269
     16 C                    -0.335129
     17 H                     0.204062
     18 H                     0.221799
     19 H                     0.216823
  ----------------------------------------
  Sum of atomic charges =    -0.000000

 -----------------------------------------------------------------
                    Cartesian Multipole Moments
 -----------------------------------------------------------------
    Charge (ESU x 10^10)
                -0.0000
    Dipole Moment (Debye)
         X       3.8712      Y      -0.9289      Z      -0.3760
       Tot       3.9988
    Quadrupole Moments (Debye-Ang)
        XX     -48.7010     XY      -2.9818     YY     -52.3926
        XZ      10.8892     YZ       4.3431     ZZ     -61.4363
    Octopole Moments (Debye-Ang^2)
       XXX      19.1899    XXY      -7.0268    XYY      -3.1952
       YYY       7.4676    XXZ     -17.1556    XYZ      -1.5023
       YYZ       3.9761    XZZ      12.4194    YZZ      -0.0149
       ZZZ      -0.7545
    Hexadecapole Moments (Debye-Ang^3)
      XXXX   -1146.7595   XXXY     -28.3769   XXYY    -229.2695
      XYYY     -26.7690   YYYY    -174.0583   XXXZ     126.8810
      XXYZ      -1.3750   XYYZ      33.3659   YYYZ     -35.4580
      XXZZ    -290.8998   XYZZ     -18.7216   YYZZ    -100.7875
      XZZZ     145.0353   YZZZ     -19.8809   ZZZZ    -444.8422
 -----------------------------------------------------------------
 Calculating MO derivatives via CPSCF
use symmetric Px in CPSCF
Wx will be set to be (0.5PFCCt+0.5CCtFP)x rather than (PFP)x
 Job number = 111, Threshold = 1.00E-11
Integral type ranges set in mkLRange.C for JobNum: 11  <1-6|7-7>
Total number of integrals generated =           88654
 Job number = 31, Threshold = 1.00E-11
Integral type ranges set in mkLRange.C for JobNum: 31  <1-6|1-6>
Total number of integrals generated =        10327786
 Job number = 130, Threshold = 1.00E-11
Integral type ranges set in mkLRange.C for JobNum: 30  <1-6|1-6>
 using symmetry in setfoz
 Job number = 31, Threshold = 1.00E-11
Integral type ranges set in mkLRange.C for JobNum: 31  <1-6|1-6>
 using symmetry in makeab
   1         3          57      0.154385    0.023175
 using symmetry in setfoz
 Job number = 31, Threshold = 1.00E-11
Integral type ranges set in mkLRange.C for JobNum: 31  <1-6|1-6>
 using symmetry in makeab
   2         3          57      0.028796    0.005664
 using symmetry in setfoz
 Job number = 31, Threshold = 1.00E-11
Integral type ranges set in mkLRange.C for JobNum: 31  <1-6|1-6>
 using symmetry in makeab
   3         3          57      0.004500    0.000864
 using symmetry in setfoz
 Job number = 31, Threshold = 1.00E-11
Integral type ranges set in mkLRange.C for JobNum: 31  <1-6|1-6>
 using symmetry in makeab
   4         4          56      0.000573    0.000099
 using symmetry in setfoz
 Job number = 31, Threshold = 1.00E-11
Integral type ranges set in mkLRange.C for JobNum: 31  <1-6|1-6>
 using symmetry in makeab
   5        46          14      0.000039    0.000009
 using symmetry in setfoz
 Job number = 31, Threshold = 1.00E-11
Integral type ranges set in mkLRange.C for JobNum: 31  <1-6|1-6>
 using symmetry in makeab
   6        60           0      0.000000    0.000000    Roots Converged
 Job number = 31, Threshold = 1.00E-11
Integral type ranges set in mkLRange.C for JobNum: 31  <1-6|1-6>
 CPSCF time:  CPU 35.83 s  wall 35.86 s
 Calculating analytic Hessian of the SCF energy
 Polarizability Matrix (a.u.)
            1           2           3
    1 -63.5819994   0.4100703   2.2618208
    2   0.4100703 -44.8702308  -0.7338162
    3   2.2618208  -0.7338162 -65.4142972
 Job number = 211, Threshold = 1.00E-11
Integral type ranges set in mkLRange.C for JobNum: 11  <1-6|7-7>
Total number of integrals generated =           88654
Finding J and K together
 Job number = 222, Threshold = 1.00E-11
Integral type ranges set in mkLRange.C for JobNum: 22  <1-6|1-6>
Total number of integrals generated =        10327786
 
 Direct stationary perturbation theory relativistic correction:
 
 rels  =       0.148417062449
 relv  =      -0.632271248316
 rel2e =       0.259000861823
 E_rel =      -0.224853324044
 
 Hessian of the SCF Energy
            1           2           3           4           5           6
    1   0.0762975  -0.0024651  -0.0685317  -0.0713469   0.0005907   0.0540501
    2  -0.0024651   0.0587790  -0.0021732  -0.0008898  -0.0579271   0.0069879
    3  -0.0685317  -0.0021732   0.3747736   0.0646937   0.0001905  -0.3450157
    4  -0.0713469  -0.0008898   0.0646937   0.5378009   0.0439091   0.0094693
    5   0.0005907  -0.0579271   0.0001905   0.0439091   0.5789349  -0.0145999
    6   0.0540501   0.0069879  -0.3450157   0.0094693  -0.0145999   0.6810561
    7   0.0087936   0.0050524   0.0044200  -0.2199395  -0.0898237  -0.1070859
    8   0.0012948  -0.0004710   0.0006016  -0.0884280  -0.1026125  -0.0635623
    9  -0.0298595  -0.0165080  -0.0163322  -0.1090768  -0.0627603  -0.1323241
   10  -0.0018774  -0.0085339   0.0016153  -0.0591295  -0.0291914   0.0148255
   11  -0.0000364   0.0024746  -0.0003414  -0.0305488  -0.3096833   0.0822871
   12   0.0040077   0.0372965  -0.0089054   0.0131046   0.0836783  -0.0838742
   13  -0.0090459   0.0043239  -0.0021834  -0.1622975   0.0298468   0.0168528
   14  -0.0026728  -0.0017869   0.0021833   0.0305512  -0.1288364  -0.0096089
   15   0.0428319  -0.0266251  -0.0087390   0.0165746  -0.0084124  -0.1102754
   16   0.0041168  -0.0030321  -0.0014007  -0.0154953   0.0324587  -0.0341947
   17  -0.0024010   0.0005966   0.0002618   0.0281231   0.0084490   0.0238373
   18  -0.0037122   0.0017360   0.0029603  -0.0021327   0.0036596   0.0039601
   19  -0.0065009   0.0052971   0.0018086  -0.0126117   0.0118305   0.0441491
   20   0.0057109  -0.0015038  -0.0009033   0.0166746   0.0078176  -0.0256427
   21  -0.0000659   0.0001975   0.0008346   0.0071495  -0.0033455  -0.0100373
   22  -0.0004646  -0.0002900  -0.0003387  -0.0003892  -0.0003306   0.0004643
   23  -0.0002005  -0.0007747  -0.0000475  -0.0003711  -0.0003811  -0.0010937
   24  -0.0002060  -0.0001363   0.0004500  -0.0000700  -0.0004545   0.0017359
   25   0.0004587   0.0003493  -0.0002993   0.0038626   0.0010853  -0.0007170
   26  -0.0001934   0.0007782   0.0004038   0.0006692   0.0044318   0.0027268
   27   0.0012623  -0.0006762   0.0000507   0.0001776   0.0021567  -0.0044376
   28  -0.0000281  -0.0000898   0.0000775  -0.0004292  -0.0002304  -0.0000279
   29   0.0000477   0.0000463  -0.0000548   0.0001503   0.0000049  -0.0003183
   30  -0.0000030   0.0000343  -0.0000173   0.0003480   0.0005071   0.0001115
   31  -0.0004175   0.0001602   0.0000605  -0.0003117  -0.0005847   0.0012350
   32   0.0002820  -0.0001266  -0.0000496   0.0003894   0.0005221  -0.0008593
   33   0.0001134  -0.0000478   0.0000034   0.0001270  -0.0000758  -0.0003469
   34   0.0003805  -0.0000649  -0.0001203   0.0011237   0.0005789  -0.0009239
   35   0.0003364  -0.0003614  -0.0002003  -0.0001457  -0.0007241  -0.0016676
   36   0.0003939  -0.0001912  -0.0001672  -0.0002017   0.0004144  -0.0017866
   37  -0.0001657   0.0001136   0.0001047  -0.0003394   0.0003679   0.0006425
   38  -0.0001553   0.0001490   0.0000766  -0.0000824   0.0003089   0.0007249
   39  -0.0001023  -0.0000041   0.0000205   0.0000413  -0.0005128   0.0003816
   40  -0.0000445  -0.0000049   0.0000764  -0.0003449   0.0005254  -0.0000006
   41  -0.0001492   0.0000187   0.0000691  -0.0002065   0.0002867   0.0004424
   42  -0.0002916   0.0001050   0.0001006  -0.0002153  -0.0003527   0.0009960
   43  -0.0001400   0.0000786   0.0000314  -0.0001804  -0.0009316   0.0012613
   44   0.0000027   0.0000942  -0.0000057   0.0002009  -0.0005197   0.0003406
   45   0.0001286  -0.0000184  -0.0000144  -0.0000010   0.0001205  -0.0002944
   46   0.0000268  -0.0000094  -0.0000368   0.0001176  -0.0002217  -0.0000621
   47   0.0000293   0.0000060  -0.0000220   0.0000616  -0.0001382  -0.0000332
   48   0.0000112   0.0000229  -0.0000108   0.0000336  -0.0002367   0.0001186
   49  -0.0000326   0.0000021   0.0000102  -0.0000202   0.0000035   0.0000701
   50  -0.0000066   0.0000123   0.0000023  -0.0000161  -0.0000043   0.0000350
   51  -0.0000255  -0.0000016   0.0000120  -0.0000215   0.0000391   0.0000458
   52   0.0000001  -0.0000006   0.0000069  -0.0000371   0.0000663  -0.0000204
   53  -0.0000102  -0.0000026   0.0000044  -0.0000101   0.0000324   0.0000060
   54  -0.0000063  -0.0000061   0.0000001   0.0000013  -0.0000019  -0.0000061
   55  -0.0000097   0.0000033   0.0000058  -0.0000323   0.0000510   0.0000125
   56  -0.0000037  -0.0000009   0.0000043  -0.0000308   0.0000384  -0.0000022
   57   0.0000049   0.0000078  -0.0000039  -0.0000014  -0.0000137  -0.0000074
            7           8           9          10          11          12
    1   0.0087936   0.0012948  -0.0298595  -0.0018774  -0.0000364   0.0040077
    2   0.0050524  -0.0004710  -0.0165080  -0.0085339   0.0024746   0.0372965
    3   0.0044200   0.0006016  -0.0163322   0.0016153  -0.0003414  -0.0089054
    4  -0.2199395  -0.0884280  -0.1090768  -0.0591295  -0.0305488   0.0131046
    5  -0.0898237  -0.1026125  -0.0627603  -0.0291914  -0.3096833   0.0836783
    6  -0.1070859  -0.0635623  -0.1323241   0.0148255   0.0822871  -0.0838742
    7   0.2390853   0.0971908   0.1215788  -0.0025426  -0.0018147  -0.0014264
    8   0.0971908   0.1115896   0.0698775  -0.0291845  -0.0146125  -0.0204689
    9   0.1215788   0.0698775   0.1398359   0.0108289   0.0049869   0.0066589
   10  -0.0025426  -0.0291845   0.0108289   0.0637080   0.0330800  -0.0140628
   11  -0.0018147  -0.0146125   0.0049869   0.0330800   0.3388540  -0.0932198
   12  -0.0014264  -0.0204689   0.0066589  -0.0140628  -0.0932198   0.0863092
   13  -0.0247576   0.0194171   0.0062524   0.0071792  -0.0046442  -0.0023361
   14  -0.0170320   0.0116435   0.0052726   0.0377880  -0.0186764  -0.0074569
   15  -0.0215889   0.0138247   0.0020258  -0.0141580   0.0093724   0.0005143
   16  -0.0029555   0.0017873  -0.0009101  -0.0072013   0.0030046  -0.0007962
   17   0.0046040  -0.0050442  -0.0001747  -0.0008056  -0.0004628   0.0004731
   18   0.0012822  -0.0001192   0.0009527  -0.0002309  -0.0011781   0.0005569
   19   0.0031170  -0.0015879   0.0006663  -0.0004293   0.0007823   0.0011395
   20   0.0022060  -0.0004658  -0.0008370  -0.0032295   0.0026900   0.0002782
   21   0.0016508  -0.0003500  -0.0007091   0.0008999  -0.0005524  -0.0009035
   22  -0.0013821  -0.0001709   0.0006317   0.0004024  -0.0001585   0.0003886
   23  -0.0011534   0.0003300   0.0000946   0.0006760  -0.0010898  -0.0007098
   24   0.0007696   0.0000424  -0.0002065   0.0006522  -0.0011156  -0.0004648
   25   0.0003315  -0.0002695  -0.0001124  -0.0004258   0.0006218  -0.0000164
   26   0.0008645  -0.0003413   0.0000811  -0.0006277   0.0004708   0.0000709
   27   0.0004552   0.0001284   0.0001116  -0.0003275  -0.0003039   0.0001637
   28  -0.0000243   0.0000757  -0.0000388   0.0000900  -0.0002179   0.0000207
   29  -0.0000862   0.0000170   0.0000053  -0.0000805   0.0001390   0.0000005
   30   0.0000329  -0.0000250   0.0000022  -0.0001477   0.0001256  -0.0000437
   31  -0.0001321   0.0000383   0.0000059   0.0001263  -0.0000445  -0.0000435
   32   0.0001030  -0.0000248  -0.0000327  -0.0001131   0.0000242   0.0000080
   33   0.0000456  -0.0000143   0.0000066  -0.0000134   0.0000007   0.0000227
   34   0.0002288  -0.0001755  -0.0000334  -0.0001368   0.0001356   0.0000789
   35  -0.0003646   0.0000319  -0.0000193   0.0003437  -0.0001666   0.0000723
   36  -0.0003865  -0.0000056  -0.0000442  -0.0000073   0.0001481   0.0001778
   37   0.0000252   0.0000052  -0.0000095  -0.0000811   0.0000338  -0.0000135
   38   0.0001027  -0.0000253  -0.0000121  -0.0001287   0.0000754  -0.0000071
   39   0.0001095   0.0000305   0.0000167   0.0001065  -0.0001278  -0.0000989
   40  -0.0000860   0.0000284  -0.0000346   0.0000101   0.0000023  -0.0000187
   41   0.0001192   0.0000458   0.0000345  -0.0003483   0.0001415  -0.0001367
   42   0.0001666   0.0000502   0.0000307   0.0000338  -0.0000991  -0.0001474
   43   0.0002250  -0.0000396   0.0000933   0.0003563  -0.0002203  -0.0000064
   44   0.0000295  -0.0000607  -0.0000091   0.0003126  -0.0001536   0.0001023
   45  -0.0000505  -0.0000044  -0.0000362  -0.0000551   0.0000492   0.0000165
   46   0.0000172  -0.0000035   0.0000147   0.0000066   0.0000024   0.0000103
   47   0.0000039  -0.0000125   0.0000002   0.0000901  -0.0000473   0.0000321
   48   0.0000239  -0.0000081   0.0000048   0.0000347  -0.0000260   0.0000264
   49   0.0000113   0.0000062   0.0000101  -0.0000106  -0.0000019  -0.0000146
   50   0.0000032  -0.0000025  -0.0000010   0.0000082  -0.0000058   0.0000091
   51   0.0000057   0.0000064   0.0000037  -0.0000123   0.0000001  -0.0000176
   52  -0.0000143   0.0000038  -0.0000064  -0.0000038   0.0000054  -0.0000023
   53  -0.0000006   0.0000087   0.0000021  -0.0000275   0.0000125  -0.0000133
   54  -0.0000003   0.0000017   0.0000041  -0.0000011   0.0000007  -0.0000058
   55  -0.0000012   0.0000119  -0.0000007  -0.0000408   0.0000188  -0.0000135
   56  -0.0000041   0.0000068  -0.0000007  -0.0000279   0.0000161  -0.0000089
   57  -0.0000025  -0.0000054  -0.0000016   0.0000190  -0.0000068   0.0000149
           13          14          15          16          17          18
    1  -0.0090459  -0.0026728   0.0428319   0.0041168  -0.0024010  -0.0037122
    2   0.0043239  -0.0017869  -0.0266251  -0.0030321   0.0005966   0.0017360
    3  -0.0021834   0.0021833  -0.0087390  -0.0014007   0.0002618   0.0029603
    4  -0.1622975   0.0305512   0.0165746  -0.0154953   0.0281231  -0.0021327
    5   0.0298468  -0.1288364  -0.0084124   0.0324587   0.0084490   0.0036596
    6   0.0168528  -0.0096089  -0.1102754  -0.0341947   0.0238373   0.0039601
    7  -0.0247576  -0.0170320  -0.0215889  -0.0029555   0.0046040   0.0012822
    8   0.0194171   0.0116435   0.0138247   0.0017873  -0.0050442  -0.0001192
    9   0.0062524   0.0052726   0.0020258  -0.0009101  -0.0001747   0.0009527
   10   0.0071792   0.0377880  -0.0141580  -0.0072013  -0.0008056  -0.0002309
   11  -0.0046442  -0.0186764   0.0093724   0.0030046  -0.0004628  -0.0011781
   12  -0.0023361  -0.0074569   0.0005143  -0.0007962   0.0004731   0.0005569
   13   0.6670828  -0.2603353   0.1207351  -0.2924891   0.1556139  -0.2336105
   14  -0.2603353   0.4682559  -0.1539839   0.1516704  -0.2153430   0.1905134
   15   0.1207351  -0.1539839   0.8805710  -0.2134527   0.1807142  -0.4200222
   16  -0.2924891   0.1516704  -0.2134527   0.2864538  -0.1811482   0.2617639
   17   0.1556139  -0.2153430   0.1807142  -0.1811482   0.1892004  -0.2343718
   18  -0.2336105   0.1905134  -0.4200222   0.2617639  -0.2343718   0.5276205
   19  -0.1715126   0.0542762   0.0615379   0.0331261   0.0007463  -0.0293868
   20   0.0486496  -0.1152701  -0.0041124  -0.0008636   0.0220640   0.0378969
   21   0.0838489  -0.0183111  -0.3187173  -0.0211576   0.0293599  -0.1101224
   22   0.0107540  -0.0106894   0.0080454   0.0031955   0.0025939   0.0057017
   23  -0.0042268   0.0019603  -0.0064335   0.0028736   0.0052603  -0.0026538
   24  -0.0279324   0.0231397  -0.0211334   0.0043149  -0.0009117  -0.0053910
   25  -0.0122369   0.0077542   0.0182570  -0.0041591  -0.0004581  -0.0087306
   26   0.0033441   0.0034332  -0.0177766   0.0025866  -0.0076343   0.0051412
   27   0.0384314  -0.0291782  -0.0131648   0.0001636  -0.0015146   0.0054029
   28   0.0003670   0.0022555  -0.0048425   0.0008970  -0.0020122   0.0013411
   29   0.0019021  -0.0020690   0.0060887  -0.0032987   0.0031110  -0.0011210
   30   0.0006948  -0.0016897   0.0026086  -0.0002148   0.0005694  -0.0020581
   31  -0.0032085   0.0052291  -0.0029959   0.0012006  -0.0005452   0.0004008
   32   0.0032353  -0.0042038   0.0036983  -0.0020321   0.0017511   0.0005892
   33  -0.0005688  -0.0009299   0.0008718   0.0006548  -0.0004917   0.0000813
   34  -0.0024154  -0.0021590   0.0123022  -0.0047834  -0.0004453  -0.0065972
   35   0.0035724  -0.0004953   0.0149750  -0.0044668   0.0007591  -0.0064354
   36   0.0101664  -0.0022315   0.0175129  -0.0127149   0.0003012  -0.0059987
   37   0.0010033   0.0000882  -0.0059877   0.0001211  -0.0002989   0.0024811
   38  -0.0003989   0.0000873  -0.0050712   0.0004687  -0.0005315   0.0019429
   39  -0.0034623   0.0011657  -0.0041869   0.0057139   0.0005123   0.0019000
   40   0.0036684  -0.0012706   0.0001228  -0.0099466  -0.0028907   0.0031841
   41  -0.0026534  -0.0014162  -0.0042655  -0.0016447   0.0028678   0.0036290
   42  -0.0026701   0.0014033  -0.0118994   0.0070825   0.0002536   0.0069605
   43  -0.0114772   0.0048368  -0.0176512   0.0079386  -0.0008748   0.0077726
   44   0.0030230   0.0024976  -0.0016477   0.0007848  -0.0050311   0.0005705
   45  -0.0029162  -0.0011138   0.0059808   0.0015505   0.0011074  -0.0069179
   46  -0.0016013   0.0000646   0.0008638   0.0013657   0.0002669  -0.0001648
   47  -0.0013036   0.0005286  -0.0001359   0.0018155   0.0000112  -0.0001454
   48  -0.0014687   0.0007897  -0.0013218   0.0037189   0.0000969  -0.0003673
   49  -0.0000479   0.0001161  -0.0009818   0.0004437   0.0000148   0.0004663
   50  -0.0000086   0.0001253  -0.0004675   0.0002199  -0.0001185   0.0002378
   51   0.0001793  -0.0000126  -0.0006124  -0.0001370  -0.0000282   0.0003582
   52   0.0007051  -0.0001580   0.0002858  -0.0010513  -0.0001825   0.0000698
   53   0.0002913  -0.0001733   0.0000589  -0.0005269  -0.0000240   0.0001191
   54   0.0000209  -0.0000346  -0.0000081  -0.0000500   0.0000508   0.0000800
   55   0.0003300  -0.0003133   0.0001020  -0.0007772   0.0000995   0.0001021
   56   0.0003511  -0.0002614   0.0001997  -0.0006571   0.0001190  -0.0000109
   57  -0.0000334   0.0000832  -0.0000044   0.0000656  -0.0000452   0.0000442
           19          20          21          22          23          24
    1  -0.0065009   0.0057109  -0.0000659  -0.0004646  -0.0002005  -0.0002060
    2   0.0052971  -0.0015038   0.0001975  -0.0002900  -0.0007747  -0.0001363
    3   0.0018086  -0.0009033   0.0008346  -0.0003387  -0.0000475   0.0004500
    4  -0.0126117   0.0166746   0.0071495  -0.0003892  -0.0003711  -0.0000700
    5   0.0118305   0.0078176  -0.0033455  -0.0003306  -0.0003811  -0.0004545
    6   0.0441491  -0.0256427  -0.0100373   0.0004643  -0.0010937   0.0017359
    7   0.0031170   0.0022060   0.0016508  -0.0013821  -0.0011534   0.0007696
    8  -0.0015879  -0.0004658  -0.0003500  -0.0001709   0.0003300   0.0000424
    9   0.0006663  -0.0008370  -0.0007091   0.0006317   0.0000946  -0.0002065
   10  -0.0004293  -0.0032295   0.0008999   0.0004024   0.0006760   0.0006522
   11   0.0007823   0.0026900  -0.0005524  -0.0001585  -0.0010898  -0.0011156
   12   0.0011395   0.0002782  -0.0009035   0.0003886  -0.0007098  -0.0004648
   13  -0.1715126   0.0486496   0.0838489   0.0107540  -0.0042268  -0.0279324
   14   0.0542762  -0.1152701  -0.0183111  -0.0106894   0.0019603   0.0231397
   15   0.0615379  -0.0041124  -0.3187173   0.0080454  -0.0064335  -0.0211334
   16   0.0331261  -0.0008636  -0.0211576   0.0031955   0.0028736   0.0043149
   17   0.0007463   0.0220640   0.0293599   0.0025939   0.0052603  -0.0009117
   18  -0.0293868   0.0378969  -0.1101224   0.0057017  -0.0026538  -0.0053910
   19   0.5501109  -0.3193544   0.0219036  -0.1673720   0.1337754  -0.1408221
   20  -0.3193544   0.3588418  -0.1420185   0.1363798  -0.1383071   0.1522842
   21   0.0219036  -0.1420185   0.8713788  -0.1462367   0.1572346  -0.2992739
   22  -0.1673720   0.1363798  -0.1462367   0.1678795  -0.1393084   0.1498795
   23   0.1337754  -0.1383071   0.1572346  -0.1393084   0.1432284  -0.1598013
   24  -0.1408221   0.1522842  -0.2992739   0.1498795  -0.1598013   0.3114560
   25  -0.1784810   0.0689110   0.0212502  -0.0100322   0.0054935   0.0105767
   26   0.0784758  -0.1193180  -0.0054387   0.0101033  -0.0087641  -0.0098473
   27   0.0186919  -0.0092853  -0.1310309  -0.0207935   0.0152784   0.0128884
   28  -0.0118285   0.0351954  -0.0188520  -0.0019694   0.0041369   0.0030397
   29   0.0114052  -0.0181831   0.0091801   0.0002529  -0.0023592  -0.0022837
   30   0.0008862  -0.0123759   0.0067871   0.0015463  -0.0010512  -0.0003843
   31  -0.0050039   0.0117683   0.0420117   0.0012361  -0.0005560   0.0001990
   32   0.0025475  -0.0077793  -0.0270482  -0.0000620   0.0008385  -0.0001600
   33   0.0015932  -0.0000478  -0.0062214   0.0005700  -0.0002676   0.0009045
   34  -0.0275904  -0.0051992  -0.0063005  -0.0012912  -0.0012267  -0.0011587
   35   0.0333160   0.0086209  -0.0075834   0.0037156   0.0009911  -0.0017091
   36   0.0206015   0.0011347  -0.0096414  -0.0004814  -0.0005310   0.0001317
   37  -0.0058851   0.0009906   0.0045227  -0.0002896  -0.0000366   0.0004836
   38  -0.0078060  -0.0015124   0.0046724  -0.0011888  -0.0005007   0.0006937
   39   0.0001618   0.0004464   0.0031315   0.0007611   0.0001954  -0.0006852
   40   0.0017300  -0.0000406   0.0013784   0.0003770  -0.0001353   0.0001950
   41  -0.0016809   0.0042921   0.0029956  -0.0011278  -0.0006933   0.0002108
   42  -0.0040039   0.0017563   0.0070437  -0.0001457  -0.0000675   0.0000560
   43  -0.0023687   0.0013080   0.0081328  -0.0004593   0.0003611   0.0001850
   44  -0.0008003  -0.0017697   0.0006967   0.0003274   0.0002165   0.0000432
   45   0.0009020   0.0006524  -0.0036394   0.0001331  -0.0000849  -0.0000724
   46   0.0021682   0.0008297  -0.0005644  -0.0001449  -0.0000311  -0.0001596
   47  -0.0010350  -0.0004712   0.0001611   0.0000573   0.0001449  -0.0000271
   48   0.0005873   0.0008934   0.0008806  -0.0001181  -0.0001059  -0.0000442
   49  -0.0002207   0.0001538   0.0005784  -0.0000348  -0.0000276   0.0000175
   50  -0.0001320   0.0000651   0.0002941  -0.0000249  -0.0000134   0.0000198
   51  -0.0003511   0.0000148   0.0003930   0.0000151   0.0000142   0.0000141
   52  -0.0000052  -0.0001781  -0.0001625   0.0000521   0.0000144   0.0000240
   53   0.0001271   0.0000729  -0.0000493  -0.0000204  -0.0000306  -0.0000070
   54   0.0002041   0.0000333  -0.0000925  -0.0000036   0.0000126   0.0000006
   55  -0.0004422   0.0000878   0.0000127  -0.0000673  -0.0000573   0.0000121
   56  -0.0001828   0.0001160  -0.0000950  -0.0000584  -0.0000563   0.0000198
   57  -0.0002692  -0.0001678  -0.0000601  -0.0000192   0.0000181   0.0000185
           25          26          27          28          29          30
    1   0.0004587  -0.0001934   0.0012623  -0.0000281   0.0000477  -0.0000030
    2   0.0003493   0.0007782  -0.0006762  -0.0000898   0.0000463   0.0000343
    3  -0.0002993   0.0004038   0.0000507   0.0000775  -0.0000548  -0.0000173
    4   0.0038626   0.0006692   0.0001776  -0.0004292   0.0001503   0.0003480
    5   0.0010853   0.0044318   0.0021567  -0.0002304   0.0000049   0.0005071
    6  -0.0007170   0.0027268  -0.0044376  -0.0000279  -0.0003183   0.0001115
    7   0.0003315   0.0008645   0.0004552  -0.0000243  -0.0000862   0.0000329
    8  -0.0002695  -0.0003413   0.0001284   0.0000757   0.0000170  -0.0000250
    9  -0.0001124   0.0000811   0.0001116  -0.0000388   0.0000053   0.0000022
   10  -0.0004258  -0.0006277  -0.0003275   0.0000900  -0.0000805  -0.0001477
   11   0.0006218   0.0004708  -0.0003039  -0.0002179   0.0001390   0.0001256
   12  -0.0000164   0.0000709   0.0001637   0.0000207   0.0000005  -0.0000437
   13  -0.0122369   0.0033441   0.0384314   0.0003670   0.0019021   0.0006948
   14   0.0077542   0.0034332  -0.0291782   0.0022555  -0.0020690  -0.0016897
   15   0.0182570  -0.0177766  -0.0131648  -0.0048425   0.0060887   0.0026086
   16  -0.0041591   0.0025866   0.0001636   0.0008970  -0.0032987  -0.0002148
   17  -0.0004581  -0.0076343  -0.0015146  -0.0020122   0.0031110   0.0005694
   18  -0.0087306   0.0051412   0.0054029   0.0013411  -0.0011210  -0.0020581
   19  -0.1784810   0.0784758   0.0186919  -0.0118285   0.0114052   0.0008862
   20   0.0689110  -0.1193180  -0.0092853   0.0351954  -0.0181831  -0.0123759
   21   0.0212502  -0.0054387  -0.1310309  -0.0188520   0.0091801   0.0067871
   22  -0.0100322   0.0101033  -0.0207935  -0.0019694   0.0002529   0.0015463
   23   0.0054935  -0.0087641   0.0152784   0.0041369  -0.0023592  -0.0010512
   24   0.0105767  -0.0098473   0.0128884   0.0030397  -0.0022837  -0.0003843
   25   0.4823845  -0.0001681   0.0144195  -0.0569011   0.0002006  -0.0046350
   26  -0.0001681   0.5681269  -0.0312793  -0.0088395  -0.2549151   0.1403783
   27   0.0144195  -0.0312793   0.7513513  -0.0010690   0.1317913  -0.1577912
   28  -0.0569011  -0.0088395  -0.0010690   0.0738504  -0.0067658   0.0019931
   29   0.0002006  -0.2549151   0.1317913  -0.0067658   0.2767764  -0.1503349
   30  -0.0046350   0.1403783  -0.1577912   0.0019931  -0.1503349   0.1637867
   31  -0.0607883  -0.0076803  -0.0314879  -0.0005034  -0.0005821  -0.0004237
   32  -0.0073743  -0.0774357  -0.0598850   0.0037537   0.0128510   0.0307611
   33  -0.0304095  -0.0712566  -0.3411748  -0.0024018  -0.0058820  -0.0165201
   34  -0.1414244  -0.0302361  -0.0132080   0.0043676   0.0003250   0.0007871
   35  -0.0426532  -0.1269394  -0.0053418  -0.0293441  -0.0152560  -0.0068820
   36  -0.0256198  -0.0070685  -0.1089626   0.0243433   0.0163065   0.0035458
   37  -0.0169513  -0.0265813   0.0385377  -0.0074426  -0.0032347  -0.0001412
   38  -0.0212775   0.0127186   0.0174536  -0.0000907  -0.0013222   0.0008498
   39   0.0061184   0.0009378   0.0009505  -0.0005936  -0.0006742   0.0005988
   40  -0.0111088  -0.0184535  -0.0423008  -0.0002212   0.0000591  -0.0005378
   41  -0.0118924  -0.0003833  -0.0279926   0.0029919   0.0023785  -0.0000280
   42   0.0010156  -0.0051763  -0.0080012  -0.0024228  -0.0015045  -0.0005151
   43   0.0019941  -0.0016429  -0.0032897   0.0001302   0.0000059  -0.0002651
   44   0.0005432   0.0008391  -0.0001055  -0.0013557  -0.0016889  -0.0009444
   45  -0.0017310  -0.0003370   0.0001807  -0.0006143  -0.0009483  -0.0002446
   46   0.0035450  -0.0014522   0.0023019  -0.0004364  -0.0005337   0.0000635
   47  -0.0011357   0.0057634  -0.0001724   0.0005644   0.0003803   0.0001053
   48   0.0005720  -0.0014995  -0.0061427   0.0000902  -0.0003170   0.0001583
   49   0.0002728  -0.0003892  -0.0016940   0.0000133  -0.0000077  -0.0000003
   50   0.0000555  -0.0000860  -0.0010427   0.0000142   0.0000051   0.0000036
   51   0.0000763  -0.0002171  -0.0005698  -0.0000356  -0.0000073   0.0000129
   52   0.0001022  -0.0005058  -0.0001548  -0.0000771   0.0000308   0.0000265
   53   0.0003877  -0.0007656   0.0003230  -0.0001629  -0.0000654  -0.0000025
   54   0.0003208  -0.0007199   0.0001578  -0.0001160  -0.0000175  -0.0000277
   55  -0.0004423   0.0007267  -0.0001158   0.0001457   0.0002099  -0.0000100
   56  -0.0001734   0.0000208  -0.0003539   0.0001211   0.0001494  -0.0000010
   57  -0.0003353   0.0008769   0.0000179   0.0001085   0.0000911  -0.0000099
           31          32          33          34          35          36
    1  -0.0004175   0.0002820   0.0001134   0.0003805   0.0003364   0.0003939
    2   0.0001602  -0.0001266  -0.0000478  -0.0000649  -0.0003614  -0.0001912
    3   0.0000605  -0.0000496   0.0000034  -0.0001203  -0.0002003  -0.0001672
    4  -0.0003117   0.0003894   0.0001270   0.0011237  -0.0001457  -0.0002017
    5  -0.0005847   0.0005221  -0.0000758   0.0005789  -0.0007241   0.0004144
    6   0.0012350  -0.0008593  -0.0003469  -0.0009239  -0.0016676  -0.0017866
    7  -0.0001321   0.0001030   0.0000456   0.0002288  -0.0003646  -0.0003865
    8   0.0000383  -0.0000248  -0.0000143  -0.0001755   0.0000319  -0.0000056
    9   0.0000059  -0.0000327   0.0000066  -0.0000334  -0.0000193  -0.0000442
   10   0.0001263  -0.0001131  -0.0000134  -0.0001368   0.0003437  -0.0000073
   11  -0.0000445   0.0000242   0.0000007   0.0001356  -0.0001666   0.0001481
   12  -0.0000435   0.0000080   0.0000227   0.0000789   0.0000723   0.0001778
   13  -0.0032085   0.0032353  -0.0005688  -0.0024154   0.0035724   0.0101664
   14   0.0052291  -0.0042038  -0.0009299  -0.0021590  -0.0004953  -0.0022315
   15  -0.0029959   0.0036983   0.0008718   0.0123022   0.0149750   0.0175129
   16   0.0012006  -0.0020321   0.0006548  -0.0047834  -0.0044668  -0.0127149
   17  -0.0005452   0.0017511  -0.0004917  -0.0004453   0.0007591   0.0003012
   18   0.0004008   0.0005892   0.0000813  -0.0065972  -0.0064354  -0.0059987
   19  -0.0050039   0.0025475   0.0015932  -0.0275904   0.0333160   0.0206015
   20   0.0117683  -0.0077793  -0.0000478  -0.0051992   0.0086209   0.0011347
   21   0.0420117  -0.0270482  -0.0062214  -0.0063005  -0.0075834  -0.0096414
   22   0.0012361  -0.0000620   0.0005700  -0.0012912   0.0037156  -0.0004814
   23  -0.0005560   0.0008385  -0.0002676  -0.0012267   0.0009911  -0.0005310
   24   0.0001990  -0.0001600   0.0009045  -0.0011587  -0.0017091   0.0001317
   25  -0.0607883  -0.0073743  -0.0304095  -0.1414244  -0.0426532  -0.0256198
   26  -0.0076803  -0.0774357  -0.0712566  -0.0302361  -0.1269394  -0.0070685
   27  -0.0314879  -0.0598850  -0.3411748  -0.0132080  -0.0053418  -0.1089626
   28  -0.0005034   0.0037537  -0.0024018   0.0043676  -0.0293441   0.0243433
   29  -0.0005821   0.0128510  -0.0058820   0.0003250  -0.0152560   0.0163065
   30  -0.0004237   0.0307611  -0.0165201   0.0007871  -0.0068820   0.0035458
   31   0.0760656   0.0033991   0.0290743  -0.0034017  -0.0085946  -0.0415734
   32   0.0033991   0.0806651   0.0776918  -0.0021327  -0.0070865  -0.0273621
   33   0.0290743   0.0776918   0.3671721   0.0021343   0.0018681  -0.0093990
   34  -0.0034017  -0.0021327   0.0021343   0.6877124   0.2195281  -0.1954018
   35  -0.0085946  -0.0070865   0.0018681   0.2195281   0.4095517  -0.0416484
   36  -0.0415734  -0.0273621  -0.0093990  -0.1954018  -0.0416484   0.9665874
   37   0.0029031   0.0033397   0.0005993  -0.3392433  -0.1156662   0.2789815
   38   0.0031595   0.0017457   0.0007360  -0.1150873  -0.1457603   0.1219615
   39   0.0037831   0.0028813   0.0033754   0.2874480   0.1279484  -0.4819905
   40  -0.0071709  -0.0050837  -0.0017716  -0.1725315  -0.0542657  -0.0480108
   41  -0.0049566  -0.0013340  -0.0014750  -0.0569059  -0.1238722  -0.0516615
   42   0.0006634   0.0006969   0.0009204  -0.0597037  -0.0585191  -0.3372928
   43  -0.0005216   0.0001037   0.0000983   0.0170754   0.0095325  -0.0051546
   44   0.0001059  -0.0006293   0.0003081   0.0116946   0.0058071  -0.0062580
   45   0.0005697   0.0000770   0.0004245   0.0281286   0.0142839  -0.0262505
   46   0.0005658  -0.0000739   0.0004557  -0.0097320  -0.0119100  -0.0226146
   47   0.0000620   0.0004325   0.0000575  -0.0138628  -0.0027254  -0.0145842
   48  -0.0012906  -0.0009111  -0.0000427  -0.0436521  -0.0274931  -0.0144441
   49  -0.0004752  -0.0002648  -0.0000873  -0.0064468  -0.0033607   0.0033233
   50  -0.0002793  -0.0001764  -0.0000535  -0.0036940  -0.0020891   0.0020588
   51  -0.0001810  -0.0000769  -0.0000114  -0.0001347   0.0000182   0.0016951
   52  -0.0000894  -0.0000928  -0.0000915  -0.0022736   0.0010596   0.0084766
   53   0.0000113  -0.0000329  -0.0000310   0.0000884   0.0009781   0.0020058
   54  -0.0000077  -0.0000378  -0.0000200  -0.0024825   0.0001280   0.0032799
   55  -0.0000733   0.0000761  -0.0001221   0.0003820  -0.0006327   0.0058804
   56  -0.0001103  -0.0000009  -0.0000891  -0.0011613  -0.0012636   0.0072110
   57   0.0000001   0.0000193  -0.0000465  -0.0011625  -0.0017942   0.0030470
           37          38          39          40          41          42
    1  -0.0001657  -0.0001553  -0.0001023  -0.0000445  -0.0001492  -0.0002916
    2   0.0001136   0.0001490  -0.0000041  -0.0000049   0.0000187   0.0001050
    3   0.0001047   0.0000766   0.0000205   0.0000764   0.0000691   0.0001006
    4  -0.0003394  -0.0000824   0.0000413  -0.0003449  -0.0002065  -0.0002153
    5   0.0003679   0.0003089  -0.0005128   0.0005254   0.0002867  -0.0003527
    6   0.0006425   0.0007249   0.0003816  -0.0000006   0.0004424   0.0009960
    7   0.0000252   0.0001027   0.0001095  -0.0000860   0.0001192   0.0001666
    8   0.0000052  -0.0000253   0.0000305   0.0000284   0.0000458   0.0000502
    9  -0.0000095  -0.0000121   0.0000167  -0.0000346   0.0000345   0.0000307
   10  -0.0000811  -0.0001287   0.0001065   0.0000101  -0.0003483   0.0000338
   11   0.0000338   0.0000754  -0.0001278   0.0000023   0.0001415  -0.0000991
   12  -0.0000135  -0.0000071  -0.0000989  -0.0000187  -0.0001367  -0.0001474
   13   0.0010033  -0.0003989  -0.0034623   0.0036684  -0.0026534  -0.0026701
   14   0.0000882   0.0000873   0.0011657  -0.0012706  -0.0014162   0.0014033
   15  -0.0059877  -0.0050712  -0.0041869   0.0001228  -0.0042655  -0.0118994
   16   0.0001211   0.0004687   0.0057139  -0.0099466  -0.0016447   0.0070825
   17  -0.0002989  -0.0005315   0.0005123  -0.0028907   0.0028678   0.0002536
   18   0.0024811   0.0019429   0.0019000   0.0031841   0.0036290   0.0069605
   19  -0.0058851  -0.0078060   0.0001618   0.0017300  -0.0016809  -0.0040039
   20   0.0009906  -0.0015124   0.0004464  -0.0000406   0.0042921   0.0017563
   21   0.0045227   0.0046724   0.0031315   0.0013784   0.0029956   0.0070437
   22  -0.0002896  -0.0011888   0.0007611   0.0003770  -0.0011278  -0.0001457
   23  -0.0000366  -0.0005007   0.0001954  -0.0001353  -0.0006933  -0.0000675
   24   0.0004836   0.0006937  -0.0006852   0.0001950   0.0002108   0.0000560
   25  -0.0169513  -0.0212775   0.0061184  -0.0111088  -0.0118924   0.0010156
   26  -0.0265813   0.0127186   0.0009378  -0.0184535  -0.0003833  -0.0051763
   27   0.0385377   0.0174536   0.0009505  -0.0423008  -0.0279926  -0.0080012
   28  -0.0074426  -0.0000907  -0.0005936  -0.0002212   0.0029919  -0.0024228
   29  -0.0032347  -0.0013222  -0.0006742   0.0000591   0.0023785  -0.0015045
   30  -0.0001412   0.0008498   0.0005988  -0.0005378  -0.0000280  -0.0005151
   31   0.0029031   0.0031595   0.0037831  -0.0071709  -0.0049566   0.0006634
   32   0.0033397   0.0017457   0.0028813  -0.0050837  -0.0013340   0.0006969
   33   0.0005993   0.0007360   0.0033754  -0.0017716  -0.0014750   0.0009204
   34  -0.3392433  -0.1150873   0.2874480  -0.1725315  -0.0569059  -0.0597037
   35  -0.1156662  -0.1457603   0.1279484  -0.0542657  -0.1238722  -0.0585191
   36   0.2789815   0.1219615  -0.4819905  -0.0480108  -0.0516615  -0.3372928
   37   0.3349746   0.1375303  -0.3404641   0.0282441   0.0017582   0.0227775
   38   0.1375303   0.1018445  -0.1432728   0.0035063   0.0310557   0.0005218
   39  -0.3404641  -0.1432728   0.5857082   0.0427717   0.0112230  -0.1115302
   40   0.0282441   0.0035063   0.0427717   0.6429741   0.2955191  -0.1145714
   41   0.0017582   0.0310557   0.0112230   0.2955191   0.2874300   0.0075406
   42   0.0227775   0.0005218  -0.1115302  -0.1145714   0.0075406   0.8855512
   43   0.0016745  -0.0037388  -0.0083563  -0.2253402  -0.1022865   0.1875731
   44  -0.0030989   0.0047043  -0.0052137  -0.1020154  -0.0721722   0.0807268
   45  -0.0029070  -0.0027930  -0.0033432   0.1797532   0.0772998  -0.3053110
   46  -0.0052089   0.0027391   0.0102555  -0.1940596  -0.0698740  -0.0113159
   47   0.0015338  -0.0062107   0.0073230  -0.0697778  -0.1193276  -0.0115312
   48  -0.0023775  -0.0000015   0.0062957  -0.0091869  -0.0097991  -0.1291286
   49   0.0020069   0.0007902   0.0005804  -0.0083384  -0.0077969  -0.0436308
   50   0.0006404   0.0011439   0.0002495  -0.0040903  -0.0059445  -0.0262427
   51  -0.0006810  -0.0004262   0.0001350   0.0006538  -0.0000639  -0.0062928
   52   0.0035964   0.0010658  -0.0026197  -0.0367143   0.0009920   0.0062336
   53  -0.0003304  -0.0002162  -0.0010835  -0.0279164   0.0119985   0.0074051
   54   0.0020302   0.0007850  -0.0003831  -0.0109968   0.0044772   0.0032137
   55   0.0010578   0.0005917  -0.0022530  -0.0110968  -0.0398573   0.0134250
   56   0.0028453   0.0022460  -0.0020245  -0.0136956  -0.0153719   0.0030337
   57   0.0014206   0.0011657  -0.0002960  -0.0007057  -0.0124998   0.0052456
           43          44          45          46          47          48
    1  -0.0001400   0.0000027   0.0001286   0.0000268   0.0000293   0.0000112
    2   0.0000786   0.0000942  -0.0000184  -0.0000094   0.0000060   0.0000229
    3   0.0000314  -0.0000057  -0.0000144  -0.0000368  -0.0000220  -0.0000108
    4  -0.0001804   0.0002009  -0.0000010   0.0001176   0.0000616   0.0000336
    5  -0.0009316  -0.0005197   0.0001205  -0.0002217  -0.0001382  -0.0002367
    6   0.0012613   0.0003406  -0.0002944  -0.0000621  -0.0000332   0.0001186
    7   0.0002250   0.0000295  -0.0000505   0.0000172   0.0000039   0.0000239
    8  -0.0000396  -0.0000607  -0.0000044  -0.0000035  -0.0000125  -0.0000081
    9   0.0000933  -0.0000091  -0.0000362   0.0000147   0.0000002   0.0000048
   10   0.0003563   0.0003126  -0.0000551   0.0000066   0.0000901   0.0000347
   11  -0.0002203  -0.0001536   0.0000492   0.0000024  -0.0000473  -0.0000260
   12  -0.0000064   0.0001023   0.0000165   0.0000103   0.0000321   0.0000264
   13  -0.0114772   0.0030230  -0.0029162  -0.0016013  -0.0013036  -0.0014687
   14   0.0048368   0.0024976  -0.0011138   0.0000646   0.0005286   0.0007897
   15  -0.0176512  -0.0016477   0.0059808   0.0008638  -0.0001359  -0.0013218
   16   0.0079386   0.0007848   0.0015505   0.0013657   0.0018155   0.0037189
   17  -0.0008748  -0.0050311   0.0011074   0.0002669   0.0000112   0.0000969
   18   0.0077726   0.0005705  -0.0069179  -0.0001648  -0.0001454  -0.0003673
   19  -0.0023687  -0.0008003   0.0009020   0.0021682  -0.0010350   0.0005873
   20   0.0013080  -0.0017697   0.0006524   0.0008297  -0.0004712   0.0008934
   21   0.0081328   0.0006967  -0.0036394  -0.0005644   0.0001611   0.0008806
   22  -0.0004593   0.0003274   0.0001331  -0.0001449   0.0000573  -0.0001181
   23   0.0003611   0.0002165  -0.0000849  -0.0000311   0.0001449  -0.0001059
   24   0.0001850   0.0000432  -0.0000724  -0.0001596  -0.0000271  -0.0000442
   25   0.0019941   0.0005432  -0.0017310   0.0035450  -0.0011357   0.0005720
   26  -0.0016429   0.0008391  -0.0003370  -0.0014522   0.0057634  -0.0014995
   27  -0.0032897  -0.0001055   0.0001807   0.0023019  -0.0001724  -0.0061427
   28   0.0001302  -0.0013557  -0.0006143  -0.0004364   0.0005644   0.0000902
   29   0.0000059  -0.0016889  -0.0009483  -0.0005337   0.0003803  -0.0003170
   30  -0.0002651  -0.0009444  -0.0002446   0.0000635   0.0001053   0.0001583
   31  -0.0005216   0.0001059   0.0005697   0.0005658   0.0000620  -0.0012906
   32   0.0001037  -0.0006293   0.0000770  -0.0000739   0.0004325  -0.0009111
   33   0.0000983   0.0003081   0.0004245   0.0004557   0.0000575  -0.0000427
   34   0.0170754   0.0116946   0.0281286  -0.0097320  -0.0138628  -0.0436521
   35   0.0095325   0.0058071   0.0142839  -0.0119100  -0.0027254  -0.0274931
   36  -0.0051546  -0.0062580  -0.0262505  -0.0226146  -0.0145842  -0.0144441
   37   0.0016745  -0.0030989  -0.0029070  -0.0052089   0.0015338  -0.0023775
   38  -0.0037388   0.0047043  -0.0027930   0.0027391  -0.0062107  -0.0000015
   39  -0.0083563  -0.0052137  -0.0033432   0.0102555   0.0073230   0.0062957
   40  -0.2253402  -0.1020154   0.1797532  -0.1940596  -0.0697778  -0.0091869
   41  -0.1022865  -0.0721722   0.0772998  -0.0698740  -0.1193276  -0.0097991
   42   0.1875731   0.0807268  -0.3053110  -0.0113159  -0.0115312  -0.1291286
   43   0.2254106   0.0982415  -0.1861925  -0.0125518  -0.0039333   0.0173896
   44   0.0982415   0.0749981  -0.0803557  -0.0066221  -0.0054850   0.0126700
   45  -0.1861925  -0.0803557   0.3244748  -0.0114012  -0.0048741   0.0148721
   46  -0.0125518  -0.0066221  -0.0114012   0.5674532  -0.0451126  -0.0249143
   47  -0.0039333  -0.0054850  -0.0048741  -0.0451126   0.6106336  -0.0103799
   48   0.0173896   0.0126700   0.0148721  -0.0249143  -0.0103799   0.6842834
   49   0.0015750   0.0003936  -0.0002278  -0.0609945   0.0005666  -0.0034688
   50   0.0003404   0.0012247  -0.0001623  -0.0003212  -0.0647774  -0.0255612
   51  -0.0002235  -0.0001748   0.0006869  -0.0140673  -0.0319092  -0.3442246
   52  -0.0029475   0.0020152  -0.0029649  -0.2313188   0.1146492   0.0708257
   53  -0.0020944  -0.0000967  -0.0014603   0.1193935  -0.1365889  -0.0474101
   54  -0.0006698  -0.0003405  -0.0002887   0.0753493  -0.0471906  -0.0926741
   55  -0.0003931  -0.0037827  -0.0021045  -0.0592180   0.0167272  -0.0068102
   56   0.0009539  -0.0027745  -0.0014380   0.0128693  -0.2821165   0.1092764
   57  -0.0007283  -0.0004032  -0.0002236  -0.0040137   0.1133259  -0.1182391
           49          50          51          52          53          54
    1  -0.0000326  -0.0000066  -0.0000255   0.0000001  -0.0000102  -0.0000063
    2   0.0000021   0.0000123  -0.0000016  -0.0000006  -0.0000026  -0.0000061
    3   0.0000102   0.0000023   0.0000120   0.0000069   0.0000044   0.0000001
    4  -0.0000202  -0.0000161  -0.0000215  -0.0000371  -0.0000101   0.0000013
    5   0.0000035  -0.0000043   0.0000391   0.0000663   0.0000324  -0.0000019
    6   0.0000701   0.0000350   0.0000458  -0.0000204   0.0000060  -0.0000061
    7   0.0000113   0.0000032   0.0000057  -0.0000143  -0.0000006  -0.0000003
    8   0.0000062  -0.0000025   0.0000064   0.0000038   0.0000087   0.0000017
    9   0.0000101  -0.0000010   0.0000037  -0.0000064   0.0000021   0.0000041
   10  -0.0000106   0.0000082  -0.0000123  -0.0000038  -0.0000275  -0.0000011
   11  -0.0000019  -0.0000058   0.0000001   0.0000054   0.0000125   0.0000007
   12  -0.0000146   0.0000091  -0.0000176  -0.0000023  -0.0000133  -0.0000058
   13  -0.0000479  -0.0000086   0.0001793   0.0007051   0.0002913   0.0000209
   14   0.0001161   0.0001253  -0.0000126  -0.0001580  -0.0001733  -0.0000346
   15  -0.0009818  -0.0004675  -0.0006124   0.0002858   0.0000589  -0.0000081
   16   0.0004437   0.0002199  -0.0001370  -0.0010513  -0.0005269  -0.0000500
   17   0.0000148  -0.0001185  -0.0000282  -0.0001825  -0.0000240   0.0000508
   18   0.0004663   0.0002378   0.0003582   0.0000698   0.0001191   0.0000800
   19  -0.0002207  -0.0001320  -0.0003511  -0.0000052   0.0001271   0.0002041
   20   0.0001538   0.0000651   0.0000148  -0.0001781   0.0000729   0.0000333
   21   0.0005784   0.0002941   0.0003930  -0.0001625  -0.0000493  -0.0000925
   22  -0.0000348  -0.0000249   0.0000151   0.0000521  -0.0000204  -0.0000036
   23  -0.0000276  -0.0000134   0.0000142   0.0000144  -0.0000306   0.0000126
   24   0.0000175   0.0000198   0.0000141   0.0000240  -0.0000070   0.0000006
   25   0.0002728   0.0000555   0.0000763   0.0001022   0.0003877   0.0003208
   26  -0.0003892  -0.0000860  -0.0002171  -0.0005058  -0.0007656  -0.0007199
   27  -0.0016940  -0.0010427  -0.0005698  -0.0001548   0.0003230   0.0001578
   28   0.0000133   0.0000142  -0.0000356  -0.0000771  -0.0001629  -0.0001160
   29  -0.0000077   0.0000051  -0.0000073   0.0000308  -0.0000654  -0.0000175
   30  -0.0000003   0.0000036   0.0000129   0.0000265  -0.0000025  -0.0000277
   31  -0.0004752  -0.0002793  -0.0001810  -0.0000894   0.0000113  -0.0000077
   32  -0.0002648  -0.0001764  -0.0000769  -0.0000928  -0.0000329  -0.0000378
   33  -0.0000873  -0.0000535  -0.0000114  -0.0000915  -0.0000310  -0.0000200
   34  -0.0064468  -0.0036940  -0.0001347  -0.0022736   0.0000884  -0.0024825
   35  -0.0033607  -0.0020891   0.0000182   0.0010596   0.0009781   0.0001280
   36   0.0033233   0.0020588   0.0016951   0.0084766   0.0020058   0.0032799
   37   0.0020069   0.0006404  -0.0006810   0.0035964  -0.0003304   0.0020302
   38   0.0007902   0.0011439  -0.0004262   0.0010658  -0.0002162   0.0007850
   39   0.0005804   0.0002495   0.0001350  -0.0026197  -0.0010835  -0.0003831
   40  -0.0083384  -0.0040903   0.0006538  -0.0367143  -0.0279164  -0.0109968
   41  -0.0077969  -0.0059445  -0.0000639   0.0009920   0.0119985   0.0044772
   42  -0.0436308  -0.0262427  -0.0062928   0.0062336   0.0074051   0.0032137
   43   0.0015750   0.0003404  -0.0002235  -0.0029475  -0.0020944  -0.0006698
   44   0.0003936   0.0012247  -0.0001748   0.0020152  -0.0000967  -0.0003405
   45  -0.0002278  -0.0001623   0.0006869  -0.0029649  -0.0014603  -0.0002887
   46  -0.0609945  -0.0003212  -0.0140673  -0.2313188   0.1193935   0.0753493
   47   0.0005666  -0.0647774  -0.0319092   0.1146492  -0.1365889  -0.0471906
   48  -0.0034688  -0.0255612  -0.3442246   0.0708257  -0.0474101  -0.0926741
   49   0.0684357   0.0076013   0.0148785   0.0041896   0.0017775   0.0322884
   50   0.0076013   0.0652323   0.0353263  -0.0019272  -0.0018674  -0.0211227
   51   0.0148785   0.0353263   0.3752200  -0.0001284  -0.0003859  -0.0110807
   52   0.0041896  -0.0019272  -0.0001284   0.2661410  -0.1198400  -0.0807855
   53   0.0017775  -0.0018674  -0.0003859  -0.1198400   0.1456995   0.0534122
   54   0.0322884  -0.0211227  -0.0110807  -0.0807855   0.0534122   0.0911094
   55  -0.0003264   0.0016171   0.0001901  -0.0002543   0.0288631  -0.0150954
   56   0.0004231   0.0072764  -0.0021154   0.0029825  -0.0189389   0.0105701
   57  -0.0021176   0.0364174  -0.0157675   0.0009876  -0.0128939   0.0067413
           55          56          57
    1  -0.0000097  -0.0000037   0.0000049
    2   0.0000033  -0.0000009   0.0000078
    3   0.0000058   0.0000043  -0.0000039
    4  -0.0000323  -0.0000308  -0.0000014
    5   0.0000510   0.0000384  -0.0000137
    6   0.0000125  -0.0000022  -0.0000074
    7  -0.0000012  -0.0000041  -0.0000025
    8   0.0000119   0.0000068  -0.0000054
    9  -0.0000007  -0.0000007  -0.0000016
   10  -0.0000408  -0.0000279   0.0000190
   11   0.0000188   0.0000161  -0.0000068
   12  -0.0000135  -0.0000089   0.0000149
   13   0.0003300   0.0003511  -0.0000334
   14  -0.0003133  -0.0002614   0.0000832
   15   0.0001020   0.0001997  -0.0000044
   16  -0.0007772  -0.0006571   0.0000656
   17   0.0000995   0.0001190  -0.0000452
   18   0.0001021  -0.0000109   0.0000442
   19  -0.0004422  -0.0001828  -0.0002692
   20   0.0000878   0.0001160  -0.0001678
   21   0.0000127  -0.0000950  -0.0000601
   22  -0.0000673  -0.0000584  -0.0000192
   23  -0.0000573  -0.0000563   0.0000181
   24   0.0000121   0.0000198   0.0000185
   25  -0.0004423  -0.0001734  -0.0003353
   26   0.0007267   0.0000208   0.0008769
   27  -0.0001158  -0.0003539   0.0000179
   28   0.0001457   0.0001211   0.0001085
   29   0.0002099   0.0001494   0.0000911
   30  -0.0000100  -0.0000010  -0.0000099
   31  -0.0000733  -0.0001103   0.0000001
   32   0.0000761  -0.0000009   0.0000193
   33  -0.0001221  -0.0000891  -0.0000465
   34   0.0003820  -0.0011613  -0.0011625
   35  -0.0006327  -0.0012636  -0.0017942
   36   0.0058804   0.0072110   0.0030470
   37   0.0010578   0.0028453   0.0014206
   38   0.0005917   0.0022460   0.0011657
   39  -0.0022530  -0.0020245  -0.0002960
   40  -0.0110968  -0.0136956  -0.0007057
   41  -0.0398573  -0.0153719  -0.0124998
   42   0.0134250   0.0030337   0.0052456
   43  -0.0003931   0.0009539  -0.0007283
   44  -0.0037827  -0.0027745  -0.0004032
   45  -0.0021045  -0.0014380  -0.0002236
   46  -0.0592180   0.0128693  -0.0040137
   47   0.0167272  -0.2821165   0.1133259
   48  -0.0068102   0.1092764  -0.1182391
   49  -0.0003264   0.0004231  -0.0021176
   50   0.0016171   0.0072764   0.0364174
   51   0.0001901  -0.0021154  -0.0157675
   52  -0.0002543   0.0029825   0.0009876
   53   0.0288631  -0.0189389  -0.0128939
   54  -0.0150954   0.0105701   0.0067413
   55   0.0712596  -0.0044408   0.0067822
   56  -0.0044408   0.3107960  -0.1241753
   57   0.0067822  -0.1241753   0.1195307
 Gradient time:  CPU 45.93 s  wall 46.00 s
 ------------------------------------------------------------------------------
                     drvman        : Timing summary (seconds)
 ------------------------------------------------------------------------------
     job step          cpu (% of tot)      sys (% of tot)     wall (% of tot)
 ------------------------------------------------------------------------------
  cpscf_lag         0.8073E+01 (17.6)   0.4000E-05 ( 3.2)   0.8082E+01 (17.6)
  iterzp            0.2341E+02 (51.0)   0.1070E-03 (85.6)   0.2343E+02 (50.9)
  make_fx           0.4312E+01 ( 9.4)   0.1000E-05 ( 0.8)   0.4318E+01 ( 9.4)
  scf_hess          0.1010E+02 (22.0)   0.1300E-04 (10.4)   0.1014E+02 (22.0)
 ------------------------------------------------------------------------------
   Grand Totals     0.4593E+02          0.1250E-03          0.4600E+02
 ------------------------------------------------------------------------------
 JobOver = TRUE
 **********************************************************************
 **                                                                  **
 **                       VIBRATIONAL ANALYSIS                       **
 **                       --------------------                       **
 **                                                                  **
 **        VIBRATIONAL FREQUENCIES (CM**-1) AND NORMAL MODES         **
 **     FORCE CONSTANTS (mDYN/ANGSTROM) AND REDUCED MASSES (AMU)     **
 **                  INFRARED INTENSITIES (KM/MOL)                   **
 **                                                                  **
 **********************************************************************
 

 Mode:                 1                      2                      3
 Frequency:        33.31                  74.21                  82.66
 Force Cnst:      0.0007                 0.0050                 0.0190
 Red. Mass:       1.0851                 1.5306                 4.7266
 IR Active:          YES                    YES                    YES
 IR Intens:        1.824                  6.183                  7.265
 Raman Active:       YES                    YES                    YES
               X      Y      Z        X      Y      Z        X      Y      Z
 H          0.004 -0.037  0.028   -0.138 -0.270 -0.033    0.032  0.160 -0.115
 C          0.004 -0.009  0.028    0.093  0.099  0.020    0.076  0.106 -0.106
 H          0.002  0.011  0.015    0.129  0.496 -0.349    0.063  0.157 -0.128
 H          0.009  0.000  0.057    0.384  0.214  0.468    0.174  0.087 -0.131
 C          0.000 -0.008  0.006    0.011 -0.029 -0.002    0.029  0.008 -0.029
 O          0.001 -0.031 -0.007   -0.023 -0.088 -0.012    0.015  0.081  0.021
 N         -0.003  0.020  0.004    0.011 -0.025 -0.002    0.004 -0.151 -0.026
 H         -0.003  0.039  0.016    0.043  0.018  0.005    0.010 -0.218 -0.076
 C         -0.008  0.024 -0.018    0.005 -0.035  0.001    0.044 -0.140  0.065
 H         -0.012  0.009 -0.039    0.003 -0.027  0.011    0.079 -0.081  0.145
 H         -0.013  0.046 -0.024    0.005 -0.045  0.003    0.070 -0.228  0.085
 C          0.002  0.004 -0.007   -0.005 -0.019 -0.002   -0.033 -0.004  0.026
 O          0.025 -0.026  0.001    0.001 -0.023  0.002   -0.217  0.302 -0.009
 N         -0.018  0.027 -0.007   -0.030  0.019 -0.003    0.085 -0.187  0.040
 H         -0.012  0.010 -0.009   -0.018 -0.002 -0.002    0.141 -0.275  0.052
 C         -0.005  0.002  0.000   -0.068  0.082 -0.006    0.005 -0.050  0.022
 H         -0.301  0.493 -0.040   -0.050  0.047 -0.003   -0.174  0.263 -0.004
 H          0.043 -0.258  0.507   -0.046  0.147 -0.047    0.097 -0.102  0.325
 H          0.240 -0.224 -0.462   -0.137  0.100  0.031    0.026 -0.195 -0.270
 TransDip  -0.018  0.039  0.004    0.040  0.068  0.007    0.054 -0.067 -0.006

 Mode:                 4                      5                      6
 Frequency:       100.46                 141.51                 189.57
 Force Cnst:      0.0099                 0.0563                 0.0741
 Red. Mass:       1.6694                 4.7707                 3.4980
 IR Active:          YES                    YES                    YES
 IR Intens:        2.060                 16.617                  2.674
 Raman Active:       YES                    YES                    YES
               X      Y      Z        X      Y      Z        X      Y      Z
 H          0.387  0.516  0.093    0.088 -0.171  0.084    0.176  0.232  0.023
 C          0.104  0.097  0.029    0.068 -0.043  0.080    0.084  0.088  0.002
 H         -0.039 -0.162  0.445    0.073  0.008  0.034   -0.022  0.134  0.123
 H         -0.020 -0.045 -0.438    0.043  0.003  0.208    0.187  0.036 -0.119
 C          0.037 -0.002 -0.003    0.099  0.038 -0.016   -0.021 -0.073 -0.022
 O         -0.014 -0.107 -0.027    0.268  0.232 -0.018    0.008 -0.037 -0.020
 N          0.022  0.004 -0.008   -0.068 -0.091 -0.055   -0.106 -0.197 -0.037
 H          0.066  0.073  0.009   -0.226 -0.230 -0.041   -0.144 -0.252 -0.048
 C         -0.003 -0.026 -0.023   -0.033 -0.006 -0.146    0.019 -0.018 -0.001
 H         -0.021 -0.031 -0.030   -0.002 -0.097 -0.275    0.138 -0.018 -0.005
 H         -0.008 -0.012 -0.026   -0.028  0.132 -0.182    0.091 -0.033 -0.003
 C         -0.005 -0.027 -0.005   -0.031 -0.015 -0.038   -0.055  0.123  0.022
 O          0.003 -0.008  0.008    0.051 -0.028  0.017    0.010  0.023  0.037
 N         -0.038 -0.015  0.001   -0.142 -0.052 -0.009   -0.111  0.248  0.008
 H         -0.028 -0.056 -0.007   -0.225 -0.064 -0.081   -0.099  0.257  0.021
 C         -0.100  0.075  0.024   -0.204 -0.038  0.163    0.126 -0.131  0.008
 H         -0.121  0.064  0.026   -0.322 -0.120  0.180    0.217 -0.237  0.015
 H         -0.054  0.150  0.024   -0.147  0.022  0.217   -0.056 -0.378 -0.080
 H         -0.173  0.082  0.039   -0.185  0.003  0.244    0.406 -0.092  0.086
 TransDip   0.011  0.045  0.002   -0.120 -0.051 -0.006    0.044 -0.029 -0.003

 Mode:                 7                      8                      9
 Frequency:       244.49                 292.40                 326.04
 Force Cnst:      0.1683                 0.1538                 0.2550
 Red. Mass:       4.7793                 3.0539                 4.0720
 IR Active:          YES                    YES                    YES
 IR Intens:        3.996                  9.411                  9.781
 Raman Active:       YES                    YES                    YES
               X      Y      Z        X      Y      Z        X      Y      Z
 H         -0.181  0.139 -0.161    0.075 -0.161  0.066    0.123  0.069  0.177
 C         -0.002  0.019 -0.122    0.005 -0.046  0.052   -0.064  0.074  0.135
 H          0.081 -0.022 -0.211    0.006 -0.067  0.066   -0.209  0.180  0.266
 H          0.076 -0.020 -0.212   -0.102 -0.007  0.132   -0.007  0.071  0.147
 C          0.021 -0.030  0.130    0.031  0.054 -0.072   -0.137 -0.034 -0.029
 O         -0.110  0.000  0.236    0.062 -0.027 -0.133   -0.081  0.026 -0.039
 N          0.115 -0.023  0.149    0.068  0.107 -0.053   -0.175 -0.134 -0.045
 H          0.123  0.041  0.185    0.165  0.121 -0.110   -0.242 -0.254 -0.082
 C          0.061 -0.006 -0.029    0.016 -0.077  0.170    0.004  0.054  0.007
 H          0.191  0.001 -0.021   -0.040  0.142  0.484    0.088  0.049 -0.004
 H         -0.111 -0.034 -0.009    0.022 -0.410  0.257    0.049  0.027  0.009
 C          0.047  0.048 -0.186   -0.017 -0.006 -0.012    0.101  0.040 -0.055
 O          0.039  0.026 -0.197   -0.140 -0.046 -0.110    0.052 -0.063 -0.126
 N         -0.065  0.053 -0.158   -0.022  0.100 -0.027    0.219 -0.067 -0.044
 H         -0.124 -0.012 -0.230   -0.046  0.079 -0.055    0.163 -0.056 -0.085
 C         -0.077 -0.080  0.157    0.004 -0.029  0.154    0.079  0.104  0.169
 H         -0.282 -0.237  0.188   -0.115 -0.135  0.175   -0.133  0.052  0.189
 H         -0.042 -0.101  0.271    0.005 -0.080  0.228    0.228  0.264  0.306
 H          0.094 -0.006  0.304    0.155  0.023  0.257   -0.002  0.138  0.237
 TransDip   0.056 -0.027 -0.015    0.015 -0.003  0.097    0.031  0.076  0.058

 Mode:                10                     11                     12
 Frequency:       400.36                 499.23                 621.17
 Force Cnst:      0.3063                 0.4083                 0.3357
 Red. Mass:       3.2430                 2.7808                 1.4769
 IR Active:          YES                    YES                    YES
 IR Intens:        8.295                 36.506                 77.288
 Raman Active:       YES                    YES                    YES
               X      Y      Z        X      Y      Z        X      Y      Z
 H          0.201 -0.156  0.226   -0.257  0.215 -0.146   -0.114  0.024 -0.015
 C         -0.049  0.008  0.171   -0.020  0.031 -0.094   -0.039  0.019  0.000
 H         -0.160  0.053  0.300    0.067  0.013 -0.210    0.038 -0.049 -0.057
 H         -0.158  0.060  0.293    0.123 -0.031 -0.232   -0.095  0.024 -0.007
 C         -0.051  0.041 -0.052   -0.021 -0.027  0.073    0.000  0.021  0.031
 O         -0.111  0.064  0.001    0.146 -0.078 -0.063    0.041  0.001 -0.011
 N          0.049 -0.017 -0.039   -0.125  0.024  0.053   -0.076 -0.072 -0.004
 H          0.127 -0.025 -0.101   -0.243 -0.107  0.048    0.529  0.760  0.141
 C          0.079 -0.106  0.054   -0.078  0.076  0.146   -0.070 -0.078 -0.032
 H          0.137  0.089  0.331    0.038  0.298  0.464   -0.117 -0.074 -0.032
 H         -0.009 -0.430  0.144   -0.167 -0.327  0.257   -0.089 -0.077 -0.033
 C          0.057 -0.011 -0.082   -0.008  0.070 -0.059    0.016 -0.050 -0.015
 O          0.186  0.125  0.049    0.133  0.026  0.025    0.032  0.039  0.023
 N         -0.083 -0.033 -0.061    0.005 -0.068 -0.041    0.016  0.033 -0.023
 H         -0.121 -0.015 -0.086   -0.008 -0.083 -0.060    0.049  0.002 -0.009
 C         -0.080 -0.069 -0.101   -0.052 -0.025 -0.031    0.040  0.025  0.022
 H         -0.029 -0.049 -0.107   -0.071 -0.009 -0.032   -0.006 -0.013  0.030
 H         -0.113 -0.100 -0.137   -0.017  0.026 -0.021    0.046  0.021  0.046
 H         -0.064 -0.084 -0.130   -0.099 -0.030 -0.042    0.071  0.040  0.055
 TransDip  -0.036 -0.081 -0.025   -0.187  0.028  0.039    0.178  0.203  0.081

 Mode:                13                     14                     15
 Frequency:       646.40                 675.26                 696.42
 Force Cnst:      0.6098                 0.8545                 0.8757
 Red. Mass:       2.4769                 3.1807                 3.0647
 IR Active:          YES                    YES                    YES
 IR Intens:       53.017                 12.702                 48.752
 Raman Active:       YES                    YES                    YES
               X      Y      Z        X      Y      Z        X      Y      Z
 H          0.269 -0.044  0.009    0.121 -0.333 -0.048   -0.220 -0.141 -0.005
 C          0.134 -0.091 -0.018    0.189 -0.096 -0.029   -0.087  0.084  0.023
 H          0.011  0.049  0.059    0.385 -0.380 -0.099    0.162 -0.256 -0.081
 H          0.261 -0.100 -0.011   -0.207 -0.025  0.064   -0.517  0.155  0.099
 C         -0.026 -0.114 -0.063    0.162  0.167 -0.014    0.110  0.210  0.039
 O         -0.044  0.085  0.061   -0.140 -0.026  0.080   -0.004 -0.086 -0.049
 N         -0.036 -0.033 -0.060   -0.101 -0.007 -0.077   -0.019 -0.155  0.017
 H          0.394  0.586  0.062   -0.291 -0.168 -0.054    0.209  0.066  0.008
 C          0.042  0.158  0.046   -0.150 -0.023 -0.019    0.153  0.088  0.031
 H          0.125  0.282  0.223   -0.144  0.098  0.164    0.315  0.028 -0.066
 H          0.121 -0.089  0.104   -0.144 -0.243  0.038    0.218  0.164  0.008
 C         -0.050  0.119  0.014   -0.059  0.022 -0.036   -0.017  0.123  0.023
 O         -0.024 -0.070 -0.026    0.049  0.009  0.045   -0.028 -0.071 -0.051
 N         -0.003 -0.067  0.037    0.031  0.015 -0.027   -0.028 -0.038  0.043
 H         -0.029 -0.056  0.022    0.181 -0.148  0.032    0.066 -0.271  0.032
 C         -0.048 -0.028 -0.024    0.057  0.035  0.029   -0.067 -0.044 -0.032
 H          0.010  0.038 -0.037   -0.020 -0.001  0.039    0.026  0.031 -0.048
 H         -0.040  0.007 -0.055    0.089  0.063  0.068   -0.077 -0.026 -0.088
 H         -0.123 -0.052 -0.078    0.054  0.052  0.069   -0.136 -0.074 -0.094
 TransDip   0.134  0.189  0.024    0.082 -0.042 -0.067    0.139  0.164  0.062

 Mode:                16                     17                     18
 Frequency:       840.38                 875.31                 905.02
 Force Cnst:      0.5281                 1.5774                 1.4442
 Red. Mass:       1.2691                 3.4942                 2.9926
 IR Active:          YES                    YES                    YES
 IR Intens:      130.596                 76.084                  5.678
 Raman Active:       YES                    YES                    YES
               X      Y      Z        X      Y      Z        X      Y      Z
 H         -0.006 -0.052 -0.017    0.032 -0.011 -0.026   -0.221  0.143  0.010
 C          0.042 -0.009 -0.005    0.086 -0.055 -0.011   -0.097  0.055  0.035
 H          0.107 -0.093 -0.036    0.112 -0.058 -0.046   -0.043  0.039 -0.035
 H         -0.054  0.001 -0.005    0.118 -0.072 -0.050   -0.032  0.024 -0.040
 C          0.009  0.038  0.004   -0.037  0.025  0.009    0.069 -0.051  0.041
 O         -0.014 -0.019 -0.005   -0.027  0.022 -0.022    0.042 -0.041  0.132
 N         -0.046 -0.017  0.009   -0.123  0.003  0.006   -0.050  0.069 -0.160
 H         -0.020  0.026  0.019   -0.093  0.018 -0.004   -0.211  0.064 -0.060
 C          0.007  0.027  0.017    0.017  0.087  0.116    0.029 -0.040 -0.159
 H         -0.007  0.019  0.001   -0.238 -0.075 -0.110   -0.045  0.267  0.297
 H          0.005  0.060  0.010    0.075  0.294  0.058    0.126 -0.539 -0.037
 C          0.072 -0.050  0.013    0.273 -0.200  0.057    0.073  0.002 -0.011
 O         -0.012  0.029 -0.035   -0.005  0.064 -0.111   -0.007 -0.006 -0.100
 N          0.018 -0.049  0.028   -0.081  0.111  0.044   -0.071 -0.014  0.165
 H         -0.512  0.818 -0.073    0.242 -0.640  0.025   -0.099 -0.088  0.123
 C         -0.021 -0.003 -0.004   -0.072 -0.042 -0.016    0.045  0.031  0.046
 H          0.037  0.014 -0.010    0.120  0.014 -0.038    0.347  0.199  0.007
 H         -0.059 -0.044 -0.022   -0.164 -0.127 -0.143   -0.076 -0.049 -0.141
 H          0.006 -0.014 -0.042   -0.051 -0.083 -0.091   -0.044 -0.058 -0.135
 TransDip  -0.176  0.320 -0.020    0.206 -0.165  0.092    0.070 -0.028 -0.010

 Mode:                19                     20                     21
 Frequency:       951.83                1059.55                1093.03
 Force Cnst:      1.9074                 1.6037                 2.4602
 Red. Mass:       3.5733                 2.4246                 3.4950
 IR Active:          YES                    YES                    YES
 IR Intens:        4.235                  9.852                  2.616
 Raman Active:       YES                    YES                    YES
               X      Y      Z        X      Y      Z        X      Y      Z
 H          0.180 -0.097 -0.007    0.439 -0.291  0.018    0.210 -0.121  0.010
 C          0.061 -0.042 -0.032   -0.081  0.071 -0.105   -0.072  0.046 -0.058
 H         -0.008  0.003  0.038   -0.343  0.115  0.250   -0.230  0.101  0.134
 H          0.046 -0.019  0.034   -0.310  0.215  0.260   -0.156  0.121  0.137
 C         -0.064  0.035 -0.030    0.102 -0.053 -0.089    0.103 -0.061 -0.062
 O         -0.022  0.037 -0.113    0.030 -0.024  0.036    0.037 -0.039  0.109
 N          0.063 -0.023  0.160    0.076 -0.097  0.040   -0.007  0.039 -0.096
 H          0.114 -0.056  0.110    0.011 -0.064  0.120   -0.008  0.055 -0.084
 C         -0.137 -0.122  0.010   -0.107  0.169  0.013   -0.138 -0.125  0.129
 H          0.036 -0.215 -0.133   -0.042  0.250  0.136   -0.424 -0.358 -0.203
 H         -0.413  0.069 -0.019   -0.269 -0.056  0.089    0.131  0.344 -0.019
 C          0.004  0.160 -0.065    0.019 -0.118 -0.026    0.065  0.188  0.077
 O          0.077 -0.006 -0.142   -0.013  0.022  0.009    0.049 -0.005 -0.063
 N         -0.079 -0.058  0.188   -0.046 -0.001  0.005    0.133  0.049  0.021
 H         -0.174 -0.161  0.087   -0.020 -0.018  0.025    0.062  0.132 -0.015
 C          0.073  0.045  0.072    0.042  0.031  0.018   -0.152 -0.099 -0.045
 H          0.476  0.303  0.015    0.071  0.028  0.018   -0.138 -0.067 -0.054
 H         -0.072 -0.023 -0.189    0.013 -0.001 -0.003   -0.113 -0.047 -0.036
 H         -0.097 -0.087 -0.197    0.049  0.023  0.005   -0.144 -0.092 -0.044
 TransDip  -0.037  0.024 -0.049    0.023  0.007 -0.098   -0.042  0.020 -0.023

 Mode:                22                     23                     24
 Frequency:      1175.88                1193.62                1200.63
 Force Cnst:      2.1214                 1.4810                 2.2449
 Red. Mass:       2.6041                 1.7643                 2.6432
 IR Active:          YES                    YES                    YES
 IR Intens:        8.711                 23.137                 12.602
 Raman Active:       YES                    YES                    YES
               X      Y      Z        X      Y      Z        X      Y      Z
 H         -0.286  0.244  0.025    0.253  0.257  0.039   -0.450  0.313  0.032
 C         -0.043 -0.014  0.082   -0.083 -0.137 -0.038   -0.021 -0.021  0.133
 H          0.053  0.063 -0.124   -0.451  0.464  0.059    0.188  0.002 -0.203
 H          0.173 -0.105 -0.139    0.580 -0.172  0.038    0.197 -0.155 -0.221
 C          0.064 -0.002 -0.021    0.094  0.165  0.028    0.026  0.006 -0.011
 O          0.000 -0.014  0.054   -0.016 -0.032 -0.005   -0.039  0.025 -0.041
[...]
 Red. Mass:       2.3020                 1.5204                 1.2887
 IR Active:          YES                    YES                    YES
 IR Intens:      184.857                 28.140                  7.208
 Raman Active:       YES                    YES                    YES
               X      Y      Z        X      Y      Z        X      Y      Z
 H         -0.253  0.159  0.015   -0.022  0.020 -0.000   -0.023  0.024 -0.001
 C         -0.036  0.013  0.068   -0.002 -0.001  0.003   -0.003 -0.001  0.003
 H          0.042  0.071 -0.114   -0.005  0.000  0.007   -0.009  0.015 -0.003
 H         -0.028 -0.043 -0.132    0.002  0.001  0.010   -0.014  0.003  0.005
 C          0.181 -0.093 -0.175    0.018 -0.011  0.014    0.025 -0.014 -0.008
 O         -0.047  0.031 -0.015   -0.018  0.018 -0.036   -0.009  0.007 -0.008
 N         -0.082  0.045  0.054    0.024 -0.025  0.031    0.004  0.027  0.008
 H         -0.335  0.236  0.363   -0.182  0.080  0.252   -0.042  0.054  0.058
 C          0.092 -0.032  0.049    0.003  0.012  0.022   -0.143 -0.014  0.010
 H          0.345 -0.125 -0.099   -0.400  0.054  0.090    0.811 -0.031 -0.043
 H         -0.492  0.138  0.068    0.710  0.081 -0.063    0.545 -0.022 -0.053
 C         -0.041 -0.039 -0.056   -0.125 -0.068 -0.086    0.034 -0.022  0.024
 O          0.003  0.003  0.006    0.056  0.027 -0.048   -0.002  0.005 -0.003
 N          0.025  0.019  0.028    0.013  0.009  0.051   -0.010 -0.001 -0.011
 H          0.128  0.075  0.139    0.222  0.173  0.282   -0.026 -0.031 -0.038
 C         -0.023 -0.013  0.011   -0.024 -0.014  0.010    0.006  0.005 -0.002
 H          0.058  0.035  0.002    0.068  0.042  0.004   -0.021 -0.021  0.002
 H         -0.020  0.003 -0.012    0.004  0.023  0.018   -0.004 -0.011 -0.001
 H         -0.004 -0.020 -0.009    0.019 -0.005  0.020   -0.009  0.000 -0.008
 TransDip   0.255 -0.148 -0.320   -0.147 -0.083  0.021    0.054 -0.011  0.066

 Mode:                31                     32                     33
 Frequency:      1560.18                1617.04                1619.30
 Force Cnst:      1.7442                 1.8111                 1.8115
 Red. Mass:       1.2162                 1.1756                 1.1725
 IR Active:          YES                    YES                    YES
 IR Intens:       34.972                  7.308                 94.686
 Raman Active:       YES                    YES                    YES
               X      Y      Z        X      Y      Z        X      Y      Z
 H          0.430 -0.291  0.129   -0.058  0.051 -0.021   -0.226  0.170 -0.080
 C         -0.115  0.070  0.019    0.000  0.001 -0.012   -0.000  0.006 -0.048
 H          0.330 -0.449 -0.193   -0.008 -0.099  0.086   -0.038 -0.383  0.343
 H          0.568 -0.077 -0.136    0.069  0.032  0.115    0.276  0.119  0.427
 C          0.010 -0.005 -0.011    0.001 -0.002  0.014    0.009 -0.012  0.054
 O         -0.001  0.001 -0.001   -0.006  0.004 -0.007   -0.019  0.016 -0.031
 N         -0.005  0.002  0.008    0.012 -0.005 -0.016    0.032 -0.012 -0.049
 H         -0.002  0.002  0.006   -0.080  0.045  0.080   -0.199  0.116  0.195
 C         -0.002 -0.002  0.000   -0.005  0.013  0.014    0.004  0.029  0.029
 H          0.017  0.004  0.008   -0.008 -0.088 -0.126    0.005 -0.178 -0.258
 H          0.014  0.012 -0.004    0.014 -0.121  0.044   -0.087 -0.244  0.105
 C         -0.001 -0.002 -0.001    0.022  0.012 -0.025   -0.001  0.005  0.007
 O          0.001  0.000 -0.000   -0.016 -0.007  0.024    0.000 -0.000 -0.003
 N          0.001  0.001  0.001   -0.002 -0.001  0.006    0.001 -0.001  0.001
 H         -0.000 -0.001 -0.000   -0.147 -0.091 -0.142    0.007  0.027  0.009
 C         -0.001 -0.000 -0.000   -0.081 -0.052 -0.046    0.029  0.017  0.012
 H          0.002  0.001 -0.000    0.491  0.277 -0.099   -0.168 -0.096  0.030
 H          0.001  0.002  0.001    0.287  0.301  0.293   -0.091 -0.103 -0.088
 H          0.002  0.000  0.001    0.376  0.141  0.300   -0.130 -0.042 -0.094
 TransDip   0.157 -0.100 -0.034   -0.074 -0.030 -0.034   -0.043 -0.042  0.306

 Mode:                34                     35                     36
 Frequency:      1636.37                1655.99                1666.32
 Force Cnst:      1.6862                 1.6861                 1.7078
 Red. Mass:       1.0688                 1.0436                 1.0439
 IR Active:          YES                    YES                    YES
 IR Intens:       13.379                 11.342                  5.393
 Raman Active:       YES                    YES                    YES
               X      Y      Z        X      Y      Z        X      Y      Z
 H         -0.187  0.118 -0.057    0.389  0.593  0.089    0.003  0.011  0.001
 C          0.004  0.003 -0.026   -0.027 -0.043 -0.005   -0.000 -0.001 -0.000
 H         -0.025 -0.239  0.222    0.271 -0.038 -0.415    0.004 -0.004 -0.004
 H          0.174  0.069  0.258   -0.220  0.136  0.412   -0.001  0.003  0.010
 C          0.002 -0.001 -0.011   -0.015 -0.018 -0.001    0.000 -0.001 -0.001
 O         -0.002  0.001  0.003    0.002  0.000  0.001   -0.000  0.000  0.000
 N         -0.002 -0.005 -0.004    0.004  0.002 -0.003   -0.001  0.000  0.001
 H          0.037 -0.020 -0.041   -0.022 -0.009  0.007    0.003 -0.003 -0.004
 C         -0.005 -0.061 -0.024    0.001 -0.001  0.001   -0.001  0.001 -0.000
 H          0.079  0.312  0.500    0.000  0.008  0.014    0.006  0.002  0.001
 H         -0.079  0.577 -0.170   -0.014  0.020 -0.003    0.004  0.000 -0.001
 C          0.010 -0.002  0.003   -0.000 -0.001 -0.001    0.001 -0.002 -0.001
 O         -0.002 -0.001  0.002   -0.000  0.000  0.000   -0.001  0.001  0.000
 N         -0.007 -0.003 -0.008    0.000  0.001  0.001    0.007 -0.010  0.001
 H          0.028 -0.004  0.021   -0.001 -0.003 -0.002    0.001 -0.009 -0.004
 C         -0.007 -0.004 -0.001    0.000  0.001 -0.000    0.028 -0.048  0.003
 H          0.051  0.025 -0.007    0.001 -0.012  0.001   -0.362  0.623 -0.053
 H          0.024  0.029  0.023    0.001 -0.002  0.005   -0.201 -0.096 -0.428
 H          0.037  0.009  0.021   -0.006 -0.003 -0.008    0.139  0.189  0.432
 TransDip   0.059  0.088  0.051    0.046  0.096  0.016   -0.039  0.062 -0.012

 Mode:                37                     38                     39
 Frequency:      1679.28                1691.37                1727.75
 Force Cnst:      2.5466                 1.8214                 2.7102
 Red. Mass:       1.5327                 1.0806                 1.5410
 IR Active:          YES                    YES                    YES
 IR Intens:      159.940                  5.399                312.134
 Raman Active:       YES                    YES                    YES
               X      Y      Z        X      Y      Z        X      Y      Z
 H         -0.191  0.167 -0.044    0.017 -0.010  0.004    0.031 -0.014  0.007
 C         -0.006  0.003 -0.010    0.000 -0.000  0.000   -0.002  0.000 -0.002
 H         -0.004 -0.191  0.150    0.001  0.013 -0.012   -0.001  0.016 -0.014
 H          0.128  0.061  0.224   -0.010 -0.004 -0.013   -0.013 -0.001 -0.010
 C          0.063 -0.029 -0.100   -0.005  0.002  0.009    0.006 -0.008  0.025
 O         -0.004 -0.000  0.016    0.000  0.000 -0.002   -0.005  0.006 -0.013
 N         -0.086  0.043  0.128    0.007 -0.003 -0.011    0.002  0.001 -0.008
 H          0.502 -0.290 -0.494   -0.039  0.022  0.038    0.001  0.002 -0.007
 C          0.004  0.023 -0.033   -0.002 -0.001  0.001   -0.006 -0.002 -0.007
 H         -0.135 -0.047 -0.134    0.018 -0.006 -0.004    0.026 -0.024 -0.035
 H          0.223 -0.280  0.017   -0.039 -0.003  0.006   -0.097 -0.066  0.020
 C         -0.012 -0.004  0.008    0.012  0.010  0.027    0.051  0.041  0.102
 O          0.008  0.004 -0.009    0.002  0.000 -0.012    0.006  0.001 -0.026
 N         -0.001 -0.002 -0.004   -0.029 -0.018 -0.011   -0.089 -0.064 -0.120
 H          0.037  0.027  0.046    0.097  0.066  0.126    0.557  0.376  0.561
 C         -0.007 -0.003  0.007   -0.028 -0.013  0.051   -0.005 -0.001  0.016
 H          0.009 -0.003  0.004   -0.208 -0.106  0.051    0.287  0.172 -0.008
 H          0.020  0.061 -0.029    0.144  0.522 -0.401   -0.018 -0.088  0.148
 H          0.062 -0.018 -0.031    0.558 -0.165 -0.329   -0.092  0.047  0.141
 TransDip   0.212 -0.102 -0.330    0.036  0.037  0.054    0.303  0.123  0.462

 Mode:                40                     41                     42
 Frequency:      1854.09                1897.22                3207.87
 Force Cnst:     12.0891                12.6761                 6.2589
 Red. Mass:       5.9687                 5.9772                 1.0323
 IR Active:          YES                    YES                    YES
 IR Intens:      137.958                294.423                 34.761
 Raman Active:       YES                    YES                    YES
               X      Y      Z        X      Y      Z        X      Y      Z
 H          0.252 -0.162  0.052    0.047 -0.031  0.009    0.001  0.000 -0.003
 C         -0.031  0.025 -0.032   -0.006  0.005 -0.007   -0.000  0.000 -0.000
 H         -0.099  0.191 -0.054   -0.022  0.037 -0.007    0.004  0.002  0.003
 H         -0.210  0.028 -0.071   -0.041  0.006 -0.011   -0.001 -0.006  0.002
 C          0.292 -0.239  0.392    0.061 -0.046  0.084    0.000 -0.000  0.000
 O         -0.158  0.130 -0.220   -0.036  0.026 -0.043   -0.000  0.000 -0.000
 N         -0.059  0.040 -0.024   -0.003  0.007 -0.015   -0.000 -0.000  0.000
 H          0.320 -0.181 -0.423    0.026 -0.018 -0.053   -0.000  0.000 -0.000
 C          0.007 -0.020  0.002    0.033  0.011 -0.040   -0.000  0.000 -0.001
 H         -0.096  0.055  0.125    0.159  0.073  0.072    0.000 -0.002  0.002
 H         -0.029  0.157 -0.046   -0.297 -0.045  0.036   -0.001  0.000  0.002
 C          0.073  0.039 -0.090   -0.298 -0.134  0.436   -0.000  0.000  0.003
 O         -0.044 -0.021  0.055    0.177  0.080 -0.235    0.001  0.000 -0.001
 N         -0.006 -0.004  0.024    0.052  0.026 -0.045   -0.001 -0.000 -0.002
 H         -0.093  0.003 -0.085   -0.346 -0.233 -0.460   -0.003 -0.002  0.005
 C          0.006  0.002 -0.005   -0.018 -0.011 -0.011   -0.038 -0.027  0.003
 H         -0.065 -0.037  0.002    0.138  0.078 -0.030    0.017  0.046  0.444
 H          0.007  0.014 -0.028    0.058  0.066  0.096    0.475 -0.311 -0.191
 H          0.012 -0.006 -0.028    0.078  0.032  0.099   -0.028  0.595 -0.291
 TransDip   0.269 -0.136  0.225   -0.212 -0.089  0.499   -0.151 -0.099 -0.054

 Mode:                43                     44                     45
 Frequency:      3213.17                3257.88                3262.62
 Force Cnst:      6.3142                 6.9006                 6.6524
 Red. Mass:       1.0380                 1.1035                 1.0607
 IR Active:          YES                    YES                    YES
 IR Intens:        2.881                 36.059                  9.875
 Raman Active:       YES                    YES                    YES
               X      Y      Z        X      Y      Z        X      Y      Z
 H         -0.067 -0.008  0.340   -0.000  0.000  0.000   -0.000 -0.000  0.004
 C          0.038 -0.032  0.016    0.000  0.001  0.000    0.000  0.000 -0.000
 H         -0.466 -0.270 -0.316   -0.004 -0.002 -0.003   -0.004 -0.002 -0.003
 H          0.091  0.658 -0.213   -0.001 -0.004  0.002   -0.000 -0.003  0.001
 C         -0.001  0.000  0.001   -0.000 -0.000 -0.000    0.000 -0.000  0.001
 O         -0.000  0.000 -0.000    0.000  0.000  0.000   -0.000  0.000 -0.000
 N         -0.000  0.000 -0.000    0.000  0.000  0.000    0.001  0.000 -0.000
 H          0.002 -0.002 -0.000   -0.000 -0.000 -0.000   -0.000 -0.004  0.002
 C          0.000  0.000 -0.000    0.000  0.003 -0.000   -0.003 -0.069  0.002
 H         -0.000 -0.001  0.001    0.001 -0.035  0.025   -0.017  0.715 -0.503
 H          0.000 -0.001 -0.002   -0.002 -0.005 -0.022    0.043  0.108  0.464
 C         -0.000 -0.000  0.000    0.000 -0.000 -0.000    0.001  0.000  0.000
 O          0.000  0.000 -0.000   -0.000  0.000 -0.000    0.000 -0.000  0.000
 N         -0.000 -0.000  0.000   -0.001  0.001 -0.000   -0.000  0.000 -0.000
 H          0.000  0.000 -0.001    0.004 -0.007  0.001   -0.000 -0.003  0.000
 C         -0.000 -0.000  0.000    0.049 -0.079  0.010    0.002 -0.004  0.000
 H          0.000  0.000  0.004    0.009 -0.026 -0.057    0.000 -0.001 -0.003
 H          0.004 -0.003 -0.002   -0.577  0.351  0.248   -0.026  0.016  0.011
 H         -0.000  0.005 -0.002   -0.008  0.608 -0.313   -0.000  0.030 -0.015
 TransDip   0.035 -0.030  0.030    0.104 -0.160  0.027    0.018 -0.088 -0.045

 Mode:                46                     47                     48
 Frequency:      3268.42                3289.42                3328.20
 Force Cnst:      6.9219                 7.0280                 7.1667
 Red. Mass:       1.0998                 1.1024                 1.0981
 IR Active:          YES                    YES                    YES
 IR Intens:        7.183                 24.260                  3.326
 Raman Active:       YES                    YES                    YES
               X      Y      Z        X      Y      Z        X      Y      Z
 H         -0.003 -0.019 -0.045    0.000 -0.000 -0.002   -0.201 -0.005  0.917
 C         -0.051 -0.075 -0.010   -0.000 -0.000  0.000    0.004  0.008 -0.090
 H          0.552  0.292  0.384    0.001  0.000  0.000    0.194  0.111  0.115
 H          0.068  0.632 -0.220    0.000  0.001 -0.000   -0.028 -0.208  0.051
 C         -0.000 -0.001 -0.000   -0.000  0.000 -0.000   -0.001  0.001 -0.003
 O         -0.000 -0.000 -0.000    0.000 -0.000  0.000    0.000 -0.000  0.001
 N          0.000  0.000  0.000   -0.000  0.000  0.000   -0.000 -0.000  0.001
 H         -0.001 -0.003 -0.000    0.000 -0.000  0.000   -0.002  0.001  0.001
 C          0.000 -0.000  0.000    0.000 -0.000  0.000   -0.000  0.000  0.000
 H         -0.000  0.005 -0.003   -0.000  0.001 -0.001    0.000 -0.001  0.001
 H          0.000  0.000  0.002   -0.000 -0.000 -0.001   -0.000 -0.001 -0.004
 C          0.000 -0.000 -0.000    0.001  0.000 -0.000   -0.000 -0.000 -0.000
 O         -0.000  0.000  0.000   -0.000 -0.000  0.000    0.000  0.000  0.000
 N          0.000  0.000 -0.000    0.000  0.000  0.001    0.000  0.000 -0.000
 H         -0.000 -0.000  0.000    0.004  0.001 -0.013   -0.000 -0.000  0.001
 C          0.000 -0.001  0.000    0.017 -0.002 -0.091    0.000 -0.000 -0.000
 H          0.000 -0.000 -0.002    0.043  0.099  0.887    0.000  0.000  0.001
 H         -0.004  0.002  0.002   -0.273  0.179  0.089   -0.000  0.000  0.000
 H         -0.000  0.005 -0.003    0.017 -0.260  0.104    0.000 -0.000  0.000
 TransDip  -0.051 -0.068 -0.010    0.023 -0.005 -0.156    0.014 -0.002 -0.057

 Mode:                49                     50                     51
 Frequency:      3333.19                3764.05                3830.74
 Force Cnst:      7.2326                 9.0216                 9.3253
 Red. Mass:       1.1049                 1.0807                 1.0786
 IR Active:          YES                    YES                    YES
 IR Intens:        5.767                187.416                 56.610
 Raman Active:       YES                    YES                    YES
               X      Y      Z        X      Y      Z        X      Y      Z
 H         -0.001 -0.000  0.003    0.001 -0.000 -0.000    0.000 -0.000  0.000
 C          0.000 -0.000 -0.000    0.000  0.000 -0.000    0.000 -0.000 -0.000
 H          0.001  0.000  0.000   -0.001 -0.000 -0.001    0.001 -0.000  0.001
 H          0.000  0.000 -0.000   -0.001  0.001 -0.000    0.000 -0.001  0.001
 C         -0.001  0.000 -0.000    0.001 -0.001  0.003   -0.002  0.001  0.001
 O          0.000 -0.000  0.000   -0.001  0.000 -0.002    0.000 -0.000  0.001
 N          0.000 -0.000  0.002    0.001 -0.001  0.000   -0.036  0.035 -0.054
 H         -0.001  0.006 -0.014   -0.012  0.012 -0.019    0.494 -0.484  0.717
 C         -0.008  0.013 -0.093   -0.001  0.000  0.000    0.001 -0.000 -0.001
 H          0.006 -0.387  0.259    0.000 -0.001  0.001    0.004 -0.009  0.004
 H          0.083  0.215  0.849    0.000 -0.000  0.000   -0.001  0.003  0.010
 C          0.001  0.001 -0.003    0.000  0.000 -0.000    0.000 -0.000 -0.000
 O         -0.000 -0.000  0.001   -0.000 -0.000  0.002    0.000  0.000  0.000
 N         -0.000 -0.000  0.001    0.045  0.021 -0.056    0.001  0.001 -0.001
 H          0.002  0.002  0.001   -0.600 -0.278  0.746   -0.016 -0.007  0.019
 C          0.000  0.000 -0.000   -0.001 -0.001 -0.000   -0.000 -0.000 -0.000
 H         -0.000 -0.000 -0.000    0.002  0.002  0.007    0.000  0.000  0.000
 H         -0.002  0.001  0.000   -0.011  0.000  0.001   -0.000 -0.000 -0.000
 H         -0.000 -0.003  0.001   -0.005 -0.009  0.002   -0.000 -0.000  0.000
 TransDip  -0.012 -0.013 -0.075   -0.352 -0.076  0.250    0.078 -0.090  0.209

 STANDARD THERMODYNAMIC QUANTITIES AT   298.15 K  AND     1.00 ATM

   This Molecule has  0 Imaginary Frequencies
   Zero point vibrational energy:      107.219 kcal/mol

   Atom    1 Element H  Has Mass    1.00783
   Atom    2 Element C  Has Mass   12.00000
   Atom    3 Element H  Has Mass    1.00783
   Atom    4 Element H  Has Mass    1.00783
   Atom    5 Element C  Has Mass   12.00000
   Atom    6 Element O  Has Mass   15.99491
   Atom    7 Element N  Has Mass   14.00307
   Atom    8 Element H  Has Mass    1.00783
   Atom    9 Element C  Has Mass   12.00000
   Atom   10 Element H  Has Mass    1.00783
   Atom   11 Element H  Has Mass    1.00783
   Atom   12 Element C  Has Mass   12.00000
   Atom   13 Element O  Has Mass   15.99491
   Atom   14 Element N  Has Mass   14.00307
   Atom   15 Element H  Has Mass    1.00783
   Atom   16 Element C  Has Mass   12.00000
   Atom   17 Element H  Has Mass    1.00783
   Atom   18 Element H  Has Mass    1.00783
   Atom   19 Element H  Has Mass    1.00783
   Molecular Mass:   130.074260 amu
   Principal axes and moments of inertia in atomic units:
                             1           2           3
    Eigenvalues --      627.85562  1803.84638  2155.64328
          X               0.95955     0.25938    -0.10949
          Y               0.04071     0.25696     0.96556
          Z              -0.27858     0.93096    -0.23601
   Rotational Symmetry Number is   1
   The Molecule is an Asymmetric Top
   Translational Enthalpy:        0.889 kcal/mol
   Rotational Enthalpy:           0.889 kcal/mol
   Vibrational Enthalpy:        111.717 kcal/mol
   gas constant (RT):             0.592 kcal/mol
   Translational Entropy:        40.502  cal/mol.K
   Rotational Entropy:           29.280  cal/mol.K
   Vibrational Entropy:          30.547  cal/mol.K

   Total Enthalpy:              114.087 kcal/mol
   Total Entropy:               100.329  cal/mol.K
Archival summary:
1\1\leeping\FREQ\HF\3-21G\22510\leeping\SatApr1909:25:412014SatApr1909:25:412014\0\\#,FREQ,HF,3-21G,\\0,1\N\H,1,0.99638\C,1,1.35084,2,120.243\O,3,1.22616,1,121.909,2,-175.416,0\C,1,1.46511,2,118.08,3,-179.36,0\H,5,1.07732,1,108.976,2,-23.7696,0\H,5,1.08067,1,108.332,2,-143.53,0\C,3,1.51327,1,115.047,2,4.46558,0\H,8,1.07829,3,108.75,1,179.383,0\H,8,1.0837,3,110.33,1,59.0964,0\H,8,1.08436,3,110.134,1,-60.6996,0\C,5,1.52853,1,112.408,2,95.3373,0\O,12,1.22056,5,122.096,1,-114.566,0\N,12,1.34407,5,114.163,1,65.8834,0\H,14,1.0004,12,119.089,5,-0.325166,0\C,14,1.4599,12,120.298,5,-179.449,0\H,16,1.08048,14,108.555,12,-179.793,0\H,16,1.08245,14,110.827,12,-59.8562,0\H,16,1.08284,14,110.983,12,60.173,0\\HF=-451.294069\\@

 Total job time:  50.62s(wall), 50.51s(cpu) 
 Sat Apr 19 09:25:41 2014

        *************************************************************
        *                                                           *
        *  Thank you very much for using Q-Chem.  Have a nice day.  *
        *                                                           *
        *************************************************************


*** MISSION COMPLETED -- STARFLEET OUT ***

