
    -----------------------------------------------------------------------
          Psi4: An Open-Source Ab Initio Electronic Structure Package
                               Psi4 1.3.2 release

                         Git: Rev {HEAD} ecbda83 


    R. M. Parrish, L. A. Burns, D. G. A. Smith, A. C. Simmonett,
    A. E. DePrince III, E. G. Hohenstein, U. Bozkaya, A. Yu. Sokolov,
    R. Di Remigio, R. M. Richard, J. F. Gonthier, A. M. James,
    H. R. McAlexander, A. Kumar, M. Saitow, X. Wang, B. P. Pritchard,
    P. Verma, H. F. Schaefer III, K. Patkowski, R. A. King, E. F. Valeev,
    F. A. Evangelista, J. M. Turney, T. D. Crawford, and C. D. Sherrill,
    J. Chem. Theory Comput. 13(7) pp 3185--3197 (2017).
    (doi: 10.1021/acs.jctc.7b00174)


                         Additional Contributions by
    P. Kraus, H. Kruse, M. H. Lechner, M. C. Schieber, R. A. Shaw,
    A. Alenaizan, R. Galvelis, Z. L. Glick, S. Lehtola, and J. P. Misiewicz

    -----------------------------------------------------------------------


    Psi4 started on: Tuesday, 18 January 2022 10:19AM

    Process ID: 323
    Host:       chem-mcdaniel-u01
    PSIDATADIR: /home/jstoppelman3/anaconda3/envs/test_forcebalance/share/psi4
    Memory:     500.0 MiB
    Threads:    12
    
  ==> Input File <==

--------------------------------------------------------------------------
molecule ace {
 -1 1
    O            1.023443601161     0.614548581322     0.564469899478
    O           -1.173650183833    -0.010278368889     0.618584236639
    C           -0.014814961096     0.048029198254     0.114270026536
    C            0.161680346802    -0.651504401274    -1.280535170953
    H            0.156282861032     0.123984236048    -2.067089682362
    H           -0.655893847740    -1.361215265906    -1.486203072465
    H            1.134797468676    -1.167499891957    -1.336115631469
 
 units angstrom
  
}

set {
basis 6-311+G(d,p)
scf_type df
}

frequency('PBE-D3BJ')
--------------------------------------------------------------------------
gradient() will perform analytic gradient computation.

*** tstart() called on chem-mcdaniel-u01
*** at Tue Jan 18 10:19:15 2022

   => Loading Basis Set <=

    Name: 6-311+G(D,P)
    Role: ORBITAL
    Keyword: BASIS
    atoms 1-2 entry O          line   171 file /home/jstoppelman3/anaconda3/envs/test_forcebalance/share/psi4/basis/6-311pg_d_p_.gbs 
    atoms 3-4 entry C          line   129 file /home/jstoppelman3/anaconda3/envs/test_forcebalance/share/psi4/basis/6-311pg_d_p_.gbs 
    atoms 5-7 entry H          line    42 file /home/jstoppelman3/anaconda3/envs/test_forcebalance/share/psi4/basis/6-311pg_d_p_.gbs 


         ---------------------------------------------------------
                                   SCF
               by Justin Turney, Rob Parrish, Andy Simmonett
                          and Daniel G. A. Smith
                              RKS Reference
                       12 Threads,    500 MiB Core
         ---------------------------------------------------------

  ==> Geometry <==

    Molecular point group: c1
    Full point group: C1

    Geometry (in Angstrom), charge = -1, multiplicity = 1:

       Center              X                  Y                   Z               Mass       
    ------------   -----------------  -----------------  -----------------  -----------------
         O            1.023443601161     0.614548581322     0.564469899478    15.994914619570
         O           -1.173650183833    -0.010278368889     0.618584236639    15.994914619570
         C           -0.014814961096     0.048029198254     0.114270026536    12.000000000000
         C            0.161680346802    -0.651504401274    -1.280535170953    12.000000000000
         H            0.156282861032     0.123984236048    -2.067089682362     1.007825032230
         H           -0.655893847740    -1.361215265906    -1.486203072465     1.007825032230
         H            1.134797468676    -1.167499891957    -1.336115631469     1.007825032230

  Running in c1 symmetry.

  Rotational constants: A =      0.37483  B =      0.32878  C =      0.18112 [cm^-1]
  Rotational constants: A =  11237.14275  B =   9856.50273  C =   5429.85939 [MHz]
  Nuclear repulsion =  110.855938508315788

  Charge       = -1
  Multiplicity = 1
  Electrons    = 32
  Nalpha       = 16
  Nbeta        = 16

  ==> Algorithm <==

  SCF Algorithm Type is DF.
  DIIS enabled.
  MOM disabled.
  Fractional occupation disabled.
  Guess Type is SAD.
  Energy threshold   = 1.00e-08
  Density threshold  = 1.00e-08
  Integral threshold = 0.00e+00

  ==> Primary Basis <==

  Basis Set: 6-311+G(D,P)
    Blend: 6-311+G(D,P)
    Number of shells: 52
    Number of basis function: 106
    Number of Cartesian functions: 110
    Spherical Harmonics?: true
    Max angular momentum: 2

  ==> DFT Potential <==

   => Composite Functional: PBE-D3BJ <= 

    PBE GGA Exchange-Correlation Functional

    J.P. Perdew et. al., Phys. Rev. Lett., 77(18), 3865-3868, 1996


    Deriv               =              1
    GGA                 =           TRUE
    Meta                =          FALSE

    Exchange Hybrid     =          FALSE
    MP2 Hybrid          =          FALSE

   => Exchange Functionals <=

    1.0000     XC_GGA_X_PBE

   => Correlation Functionals <=

    1.0000     XC_GGA_C_PBE

   => Molecular Quadrature <=

    Radial Scheme          =       TREUTLER
    Pruning Scheme         =           FLAT
    Nuclear Scheme         =       TREUTLER

    BS radius alpha        =              1
    Pruning alpha          =              1
    Radial Points          =             75
    Spherical Points       =            302
    Total Points           =         158550
    Total Blocks           =           1278
    Max Points             =            256
    Max Functions          =            106

   => PBE-D3(BJ): Empirical Dispersion <=

    Grimme's -D3 (BJ-damping) Dispersion Correction
    Grimme S.; Ehrlich S.; Goerigk L. (2011), J. Comput. Chem., 32: 1456

        s6 =       1.000000
        s8 =       0.787500
        a1 =       0.428900
        a2 =       4.440700

   => Loading Basis Set <=

    Name: (6-311+G(D,P) AUX)
    Role: JKFIT
    Keyword: DF_BASIS_SCF
    atoms 1-2 entry O          line   324 file /home/jstoppelman3/anaconda3/envs/test_forcebalance/share/psi4/basis/heavy-aug-cc-pvtz-jkfit.gbs 
    atoms 3-4 entry C          line   200 file /home/jstoppelman3/anaconda3/envs/test_forcebalance/share/psi4/basis/heavy-aug-cc-pvtz-jkfit.gbs 
    atoms 5-7 entry H          line   116 file /home/jstoppelman3/anaconda3/envs/test_forcebalance/share/psi4/basis/heavy-aug-cc-pvtz-jkfit.gbs 

  ==> Pre-Iterations <==

   -------------------------------------------------------
    Irrep   Nso     Nmo     Nalpha   Nbeta   Ndocc  Nsocc
   -------------------------------------------------------
     A        106     106       0       0       0       0
   -------------------------------------------------------
    Total     106     106      16      16      16       0
   -------------------------------------------------------

  ==> Integral Setup <==

  DFHelper Memory: AOs need 0.047 GiB; user supplied 0.047 GiB. Using in-core AOs.

  ==> MemDFJK: Density-Fitted J/K Matrices <==

    J tasked:                   Yes
    K tasked:                    No
    wK tasked:                   No
    OpenMP threads:              12
    Memory [MiB]:                48
    Algorithm:                 Core
    Schwarz Cutoff:           1E-12
    Mask sparsity (%):       0.6052
    Fitting Condition:        1E-10

   => Auxiliary Basis Set <=

  Basis Set: (6-311+G(D,P) AUX)
    Blend: HEAVY-AUG-CC-PVTZ-JKFIT
    Number of shells: 150
    Number of basis function: 506
    Number of Cartesian functions: 629
    Spherical Harmonics?: true
    Max angular momentum: 4

  Cached 100.0% of DFT collocation blocks in 0.393 [GiB].

  Minimum eigenvalue in the overlap matrix is 2.2045678624E-04.
  Using Symmetric Orthogonalization.

  SCF Guess: Superposition of Atomic Densities via on-the-fly atomic UHF.

  ==> Iterations <==

                           Total Energy        Delta E     RMS |[F,P]|

   @DF-RKS iter SAD:  -227.60575462991295   -2.27606e+02   0.00000e+00 
   @DF-RKS iter   1:  -227.76614575103216   -1.60391e-01   1.07043e-02 DIIS
   @DF-RKS iter   2:  -220.15015453604806    7.61599e+00   2.78556e-02 DIIS
   @DF-RKS iter   3:  -227.96249454723736   -7.81234e+00   8.22273e-03 DIIS
   @DF-RKS iter   4:  -228.31191469209435   -3.49420e-01   2.10768e-03 DIIS
   @DF-RKS iter   5:  -228.34139902547332   -2.94843e-02   1.23546e-03 DIIS
   @DF-RKS iter   6:  -228.34713346141021   -5.73444e-03   6.04964e-04 DIIS
   @DF-RKS iter   7:  -228.34872067393141   -1.58721e-03   1.28635e-04 DIIS
   @DF-RKS iter   8:  -228.34874430038582   -2.36265e-05   1.08722e-04 DIIS
   @DF-RKS iter   9:  -228.34879604761434   -5.17472e-05   5.12757e-06 DIIS
   @DF-RKS iter  10:  -228.34879617319598   -1.25582e-07   1.35864e-06 DIIS
   @DF-RKS iter  11:  -228.34879618355075   -1.03548e-08   2.48165e-07 DIIS
   @DF-RKS iter  12:  -228.34879618389081   -3.40066e-10   5.50445e-08 DIIS
   @DF-RKS iter  13:  -228.34879618390872   -1.79057e-11   6.50299e-09 DIIS
  Energy and wave function converged.


  ==> Post-Iterations <==

    Orbital Energies [Eh]
    ---------------------

    Doubly Occupied:                                                      

       1A    -18.488046     2A    -18.487235     3A     -9.762521  
       4A     -9.699276     5A     -0.729614     6A     -0.649680  
       7A     -0.461787     8A     -0.248767     9A     -0.201164  
      10A     -0.191393    11A     -0.173140    12A     -0.139214  
      13A     -0.119936    14A     -0.014415    15A      0.003604  
      16A      0.013863  

    Virtual:                                                              

      17A      0.128877    18A      0.174152    19A      0.174587  
      20A      0.177220    21A      0.208654    22A      0.210645  
      23A      0.213855    24A      0.219771    25A      0.263537  
      26A      0.286252    27A      0.294698    28A      0.341964  
      29A      0.359416    30A      0.375421    31A      0.377440  
      32A      0.386958    33A      0.427591    34A      0.436475  
      35A      0.447129    36A      0.472534    37A      0.476311  
      38A      0.558865    39A      0.579179    40A      0.594102  
      41A      0.614177    42A      0.647746    43A      0.723549  
      44A      0.737655    45A      0.758056    46A      0.807534  
      47A      0.843548    48A      0.880572    49A      0.985096  
      50A      1.006301    51A      1.135951    52A      1.214249  
      53A      1.268662    54A      1.299729    55A      1.311387  
      56A      1.328117    57A      1.342091    58A      1.378948  
      59A      1.515280    60A      1.551803    61A      1.554370  
      62A      1.620621    63A      1.660457    64A      1.666202  
      65A      1.716429    66A      1.737672    67A      1.859745  
      68A      1.940973    69A      1.957264    70A      2.027810  
      71A      2.073391    72A      2.192128    73A      2.314205  
      74A      2.387789    75A      2.523352    76A      2.586274  
      77A      2.607561    78A      2.646384    79A      2.671625  
      80A      2.787036    81A      2.893210    82A      2.969932  
      83A      2.987709    84A      3.012680    85A      3.043055  
      86A      3.132022    87A      3.331238    88A      3.398816  
      89A      3.413313    90A      3.492822    91A      3.639090  
      92A      3.764530    93A      3.852036    94A      3.908496  
      95A      4.163412    96A      4.251621    97A      5.113476  
      98A      5.161951    99A      5.197030   100A      5.256380  
     101A      5.632519   102A      5.943970   103A     23.743979  
     104A     23.854110   105A     49.739511   106A     49.820299  

    Final Occupation by Irrep:
              A 
    DOCC [    16 ]

  @DF-RKS Final Energy:  -228.34879618390872

   => Energetics <=

    Nuclear Repulsion Energy =            110.8559385083157878
    One-Electron Energy =                -538.9275404378048506
    Two-Electron Energy =                 228.8087629671926209
    DFT Exchange-Correlation Energy =     -29.0823090216122750
    Empirical Dispersion Energy =          -0.0036482000000000
    VV10 Nonlocal Energy =                  0.0000000000000000
    Total Energy =                       -228.3487961839087177

Computation Completed


Properties will be evaluated at   0.000000,   0.000000,   0.000000 [a0]

Properties computed using the SCF density matrix

  Nuclear Dipole Moment: [e a0]
     X:     0.5947      Y:    -2.2515      Z:    -4.5780

  Electronic Dipole Moment: [e a0]
     X:    -0.4569      Y:     1.6837      Z:     3.4751

  Dipole Moment: [e a0]
     X:     0.1379      Y:    -0.5677      Z:    -1.1029     Total:     1.2481

  Dipole Moment: [D]
     X:     0.3504      Y:    -1.4430      Z:    -2.8034     Total:     3.1724


*** tstop() called on chem-mcdaniel-u01 at Tue Jan 18 10:19:17 2022
Module time:
	user time   =      21.42 seconds =       0.36 minutes
	system time =       0.67 seconds =       0.01 minutes
	total time  =          2 seconds =       0.03 minutes
Total time:
	user time   =      21.42 seconds =       0.36 minutes
	system time =       0.67 seconds =       0.01 minutes
	total time  =          2 seconds =       0.03 minutes

*** tstart() called on chem-mcdaniel-u01
*** at Tue Jan 18 10:19:17 2022


         ------------------------------------------------------------
                                   SCF GRAD                          
                          Rob Parrish, Justin Turney,                
                       Andy Simmonett, and Alex Sokolov              
         ------------------------------------------------------------

  ==> Geometry <==

    Molecular point group: c1
    Full point group: C1

    Geometry (in Angstrom), charge = -1, multiplicity = 1:

       Center              X                  Y                   Z               Mass       
    ------------   -----------------  -----------------  -----------------  -----------------
         O            1.023443601161     0.614548581322     0.564469899478    15.994914619570
         O           -1.173650183833    -0.010278368889     0.618584236639    15.994914619570
         C           -0.014814961096     0.048029198254     0.114270026536    12.000000000000
         C            0.161680346802    -0.651504401274    -1.280535170953    12.000000000000
         H            0.156282861032     0.123984236048    -2.067089682362     1.007825032230
         H           -0.655893847740    -1.361215265906    -1.486203072465     1.007825032230
         H            1.134797468676    -1.167499891957    -1.336115631469     1.007825032230

  Nuclear repulsion =  110.855938508315788

  ==> Basis Set <==

  Basis Set: 6-311+G(D,P)
    Blend: 6-311+G(D,P)
    Number of shells: 52
    Number of basis function: 106
    Number of Cartesian functions: 110
    Spherical Harmonics?: true
    Max angular momentum: 2

  ==> DFJKGrad: Density-Fitted SCF Gradients <==

    Gradient:                    1
    J tasked:                  Yes
    K tasked:                   No
    wK tasked:                  No
    OpenMP threads:             12
    Integrals threads:          12
    Memory [MiB]:              375
    Schwarz Cutoff:          0E+00
    Fitting Condition:       1E-10

   => Auxiliary Basis Set <=

  Basis Set: (6-311+G(D,P) AUX)
    Blend: HEAVY-AUG-CC-PVTZ-JKFIT
    Number of shells: 150
    Number of basis function: 506
    Number of Cartesian functions: 629
    Spherical Harmonics?: true
    Max angular momentum: 4

  ==> DFT Potential <==

   => Composite Functional: PBE-D3BJ <= 

    PBE GGA Exchange-Correlation Functional

    J.P. Perdew et. al., Phys. Rev. Lett., 77(18), 3865-3868, 1996


    Deriv               =              1
    GGA                 =           TRUE
    Meta                =          FALSE

    Exchange Hybrid     =          FALSE
    MP2 Hybrid          =          FALSE

   => Exchange Functionals <=

    1.0000     XC_GGA_X_PBE

   => Correlation Functionals <=

    1.0000     XC_GGA_C_PBE

   => Molecular Quadrature <=

    Radial Scheme          =       TREUTLER
    Pruning Scheme         =           FLAT
    Nuclear Scheme         =       TREUTLER

    BS radius alpha        =              1
    Pruning alpha          =              1
    Radial Points          =             75
    Spherical Points       =            302
    Total Points           =         158550
    Total Blocks           =           1278
    Max Points             =            256
    Max Functions          =            106


  -Total Gradient:
     Atom            X                  Y                   Z
    ------   -----------------  -----------------  -----------------
       1       -0.000017219213    -0.000010479242     0.000018236506
       2        0.000016139756     0.000000687368     0.000013361617
       3       -0.000010329230    -0.000017371950    -0.000087707573
       4       -0.000010520062     0.000089341795     0.000066008773
       5        0.000008998149    -0.000039000656     0.000041433113
       6        0.000004139351    -0.000022864163    -0.000024114897
       7        0.000018299822    -0.000032419741    -0.000048627101


*** tstop() called on chem-mcdaniel-u01 at Tue Jan 18 10:19:18 2022
Module time:
	user time   =      12.84 seconds =       0.21 minutes
	system time =       0.27 seconds =       0.00 minutes
	total time  =          1 seconds =       0.02 minutes
Total time:
	user time   =      34.57 seconds =       0.58 minutes
	system time =       0.96 seconds =       0.02 minutes
	total time  =          3 seconds =       0.05 minutes

  Based on options and gradient (rms=3.77E-05), recommend projecting translations and projecting rotations.
hessian() will perform frequency computation by finite difference of analytic gradients.

         ----------------------------------------------------------
                                   FINDIF
                     R. A. King and Jonathon Misiewicz
         ---------------------------------------------------------

  Using finite-differences of gradients to determine vibrational frequencies and 
  normal modes.  Resulting frequencies are only valid at stationary points.
    Generating geometries for use with 3-point formula.
    Displacement size will be 5.00e-03.
    Number of atoms is 7.
    Number of irreps is 1.
    Number of SALCs is 15.
    Translations projected? 1. Rotations projected? 1.
    Index of SALCs per irrep:
     1 :  0  1  2  3  4  5  6  7  8  9  10  11  12  13  14 
    Number of SALCs per irrep:
     Irrep 1: 15
    Number of geometries (including reference) is 31.
    Number of displacements per irrep:
      Irrep 1: 30

  //>>>>>>>>>>>>>>>>>>>>>>>>>>>>>>>>>>>//
  //    Loading displacement 1 of 31   //
  //<<<<<<<<<<<<<<<<<<<<<<<<<<<<<<<<<<<//
gradient() will perform analytic gradient computation.

*** tstart() called on chem-mcdaniel-u01
*** at Tue Jan 18 10:19:19 2022

   => Loading Basis Set <=

    Name: 6-311+G(D,P)
    Role: ORBITAL
    Keyword: BASIS
    atoms 1-2 entry O          line   171 file /home/jstoppelman3/anaconda3/envs/test_forcebalance/share/psi4/basis/6-311pg_d_p_.gbs 
    atoms 3-4 entry C          line   129 file /home/jstoppelman3/anaconda3/envs/test_forcebalance/share/psi4/basis/6-311pg_d_p_.gbs 
    atoms 5-7 entry H          line    42 file /home/jstoppelman3/anaconda3/envs/test_forcebalance/share/psi4/basis/6-311pg_d_p_.gbs 


         ---------------------------------------------------------
                                   SCF
               by Justin Turney, Rob Parrish, Andy Simmonett
                          and Daniel G. A. Smith
                              RKS Reference
                       12 Threads,    500 MiB Core
         ---------------------------------------------------------

  ==> Geometry <==

    Molecular point group: c1
    Full point group: C1

    Geometry (in Angstrom), charge = -1, multiplicity = 1:

       Center              X                  Y                   Z               Mass       
    ------------   -----------------  -----------------  -----------------  -----------------
         O            1.023443601161     0.614548581322     0.564469899478    15.994914619570
         O           -1.173650183833    -0.010278368889     0.618584236639    15.994914619570
         C           -0.014814961096     0.048029198254     0.114270026536    12.000000000000
         C            0.161680346802    -0.651504401274    -1.280535170953    12.000000000000
         H            0.156282861032     0.123984236048    -2.067089682362     1.007825032230
         H           -0.655893847740    -1.361215265906    -1.486203072465     1.007825032230
         H            1.134797468676    -1.167499891957    -1.336115631469     1.007825032230

  Running in c1 symmetry.

  Rotational constants: A =      0.37483  B =      0.32878  C =      0.18112 [cm^-1]
  Rotational constants: A =  11237.14275  B =   9856.50273  C =   5429.85939 [MHz]
  Nuclear repulsion =  110.855938508315788

  Charge       = -1
  Multiplicity = 1
  Electrons    = 32
  Nalpha       = 16
  Nbeta        = 16

  ==> Algorithm <==

  SCF Algorithm Type is DF.
  DIIS enabled.
  MOM disabled.
  Fractional occupation disabled.
  Guess Type is SAD.
  Energy threshold   = 1.00e-08
  Density threshold  = 1.00e-08
  Integral threshold = 0.00e+00

  ==> Primary Basis <==

  Basis Set: 6-311+G(D,P)
    Blend: 6-311+G(D,P)
    Number of shells: 52
    Number of basis function: 106
    Number of Cartesian functions: 110
    Spherical Harmonics?: true
    Max angular momentum: 2

  ==> DFT Potential <==

   => Composite Functional: PBE-D3BJ <= 

    PBE GGA Exchange-Correlation Functional

    J.P. Perdew et. al., Phys. Rev. Lett., 77(18), 3865-3868, 1996


    Deriv               =              1
    GGA                 =           TRUE
    Meta                =          FALSE

    Exchange Hybrid     =          FALSE
    MP2 Hybrid          =          FALSE

   => Exchange Functionals <=

    1.0000     XC_GGA_X_PBE

   => Correlation Functionals <=

    1.0000     XC_GGA_C_PBE

   => Molecular Quadrature <=

    Radial Scheme          =       TREUTLER
    Pruning Scheme         =           FLAT
    Nuclear Scheme         =       TREUTLER

    BS radius alpha        =              1
    Pruning alpha          =              1
    Radial Points          =             75
    Spherical Points       =            302
    Total Points           =         158550
    Total Blocks           =           1278
    Max Points             =            256
    Max Functions          =            106

   => PBE-D3(BJ): Empirical Dispersion <=

    Grimme's -D3 (BJ-damping) Dispersion Correction
    Grimme S.; Ehrlich S.; Goerigk L. (2011), J. Comput. Chem., 32: 1456

        s6 =       1.000000
        s8 =       0.787500
        a1 =       0.428900
        a2 =       4.440700

   => Loading Basis Set <=

    Name: (6-311+G(D,P) AUX)
    Role: JKFIT
    Keyword: DF_BASIS_SCF
    atoms 1-2 entry O          line   324 file /home/jstoppelman3/anaconda3/envs/test_forcebalance/share/psi4/basis/heavy-aug-cc-pvtz-jkfit.gbs 
    atoms 3-4 entry C          line   200 file /home/jstoppelman3/anaconda3/envs/test_forcebalance/share/psi4/basis/heavy-aug-cc-pvtz-jkfit.gbs 
    atoms 5-7 entry H          line   116 file /home/jstoppelman3/anaconda3/envs/test_forcebalance/share/psi4/basis/heavy-aug-cc-pvtz-jkfit.gbs 

  ==> Pre-Iterations <==

   -------------------------------------------------------
    Irrep   Nso     Nmo     Nalpha   Nbeta   Ndocc  Nsocc
   -------------------------------------------------------
     A        106     106       0       0       0       0
   -------------------------------------------------------
    Total     106     106      16      16      16       0
   -------------------------------------------------------

  ==> Integral Setup <==

  DFHelper Memory: AOs need 0.047 GiB; user supplied 0.047 GiB. Using in-core AOs.

  ==> MemDFJK: Density-Fitted J/K Matrices <==

    J tasked:                   Yes
    K tasked:                    No
    wK tasked:                   No
    OpenMP threads:              12
    Memory [MiB]:                48
    Algorithm:                 Core
    Schwarz Cutoff:           1E-12
    Mask sparsity (%):       0.6052
    Fitting Condition:        1E-10

   => Auxiliary Basis Set <=

  Basis Set: (6-311+G(D,P) AUX)
    Blend: HEAVY-AUG-CC-PVTZ-JKFIT
    Number of shells: 150
    Number of basis function: 506
    Number of Cartesian functions: 629
    Spherical Harmonics?: true
    Max angular momentum: 4

  Cached 100.0% of DFT collocation blocks in 0.393 [GiB].

  Minimum eigenvalue in the overlap matrix is 2.2045678624E-04.
  Using Symmetric Orthogonalization.

  SCF Guess: Superposition of Atomic Densities via on-the-fly atomic UHF.

  ==> Iterations <==

                           Total Energy        Delta E     RMS |[F,P]|

   @DF-RKS iter SAD:  -227.60575462980736   -2.27606e+02   0.00000e+00 
   @DF-RKS iter   1:  -227.76614575091739   -1.60391e-01   1.07043e-02 DIIS
   @DF-RKS iter   2:  -220.15015451809043    7.61599e+00   2.78556e-02 DIIS
   @DF-RKS iter   3:  -227.96249454668481   -7.81234e+00   8.22273e-03 DIIS
   @DF-RKS iter   4:  -228.31191469228233   -3.49420e-01   2.10768e-03 DIIS
   @DF-RKS iter   5:  -228.34139902541389   -2.94843e-02   1.23546e-03 DIIS
   @DF-RKS iter   6:  -228.34713346129672   -5.73444e-03   6.04964e-04 DIIS
   @DF-RKS iter   7:  -228.34872067381889   -1.58721e-03   1.28635e-04 DIIS
   @DF-RKS iter   8:  -228.34874430027207   -2.36265e-05   1.08722e-04 DIIS
   @DF-RKS iter   9:  -228.34879604750071   -5.17472e-05   5.12757e-06 DIIS
   @DF-RKS iter  10:  -228.34879617308252   -1.25582e-07   1.35864e-06 DIIS
   @DF-RKS iter  11:  -228.34879618343703   -1.03545e-08   2.48165e-07 DIIS
   @DF-RKS iter  12:  -228.34879618377738   -3.40350e-10   5.50445e-08 DIIS
   @DF-RKS iter  13:  -228.34879618379517   -1.77920e-11   6.50299e-09 DIIS
  Energy and wave function converged.


  ==> Post-Iterations <==

    Orbital Energies [Eh]
    ---------------------

    Doubly Occupied:                                                      

       1A    -18.488046     2A    -18.487235     3A     -9.762521  
       4A     -9.699276     5A     -0.729614     6A     -0.649680  
       7A     -0.461787     8A     -0.248767     9A     -0.201164  
      10A     -0.191393    11A     -0.173140    12A     -0.139214  
      13A     -0.119936    14A     -0.014415    15A      0.003604  
      16A      0.013863  

    Virtual:                                                              

      17A      0.128877    18A      0.174152    19A      0.174587  
      20A      0.177220    21A      0.208654    22A      0.210645  
      23A      0.213855    24A      0.219771    25A      0.263537  
      26A      0.286252    27A      0.294698    28A      0.341964  
      29A      0.359416    30A      0.375421    31A      0.377440  
      32A      0.386958    33A      0.427591    34A      0.436475  
      35A      0.447129    36A      0.472534    37A      0.476311  
      38A      0.558865    39A      0.579179    40A      0.594102  
      41A      0.614177    42A      0.647746    43A      0.723549  
      44A      0.737655    45A      0.758056    46A      0.807534  
      47A      0.843548    48A      0.880572    49A      0.985096  
      50A      1.006301    51A      1.135951    52A      1.214249  
      53A      1.268662    54A      1.299729    55A      1.311387  
      56A      1.328117    57A      1.342091    58A      1.378948  
      59A      1.515280    60A      1.551803    61A      1.554370  
      62A      1.620621    63A      1.660457    64A      1.666202  
      65A      1.716429    66A      1.737672    67A      1.859745  
      68A      1.940973    69A      1.957264    70A      2.027810  
      71A      2.073391    72A      2.192128    73A      2.314205  
      74A      2.387789    75A      2.523352    76A      2.586274  
      77A      2.607561    78A      2.646384    79A      2.671625  
      80A      2.787036    81A      2.893210    82A      2.969932  
      83A      2.987709    84A      3.012680    85A      3.043055  
      86A      3.132022    87A      3.331238    88A      3.398816  
      89A      3.413313    90A      3.492822    91A      3.639090  
      92A      3.764530    93A      3.852036    94A      3.908496  
      95A      4.163412    96A      4.251621    97A      5.113476  
      98A      5.161951    99A      5.197030   100A      5.256380  
     101A      5.632519   102A      5.943970   103A     23.743979  
     104A     23.854110   105A     49.739511   106A     49.820299  

    Final Occupation by Irrep:
              A 
    DOCC [    16 ]

  @DF-RKS Final Energy:  -228.34879618379517

   => Energetics <=

    Nuclear Repulsion Energy =            110.8559385083157878
    One-Electron Energy =                -538.9275404378618077
    Two-Electron Energy =                 228.8087629673655670
    DFT Exchange-Correlation Energy =     -29.0823090216147122
    Empirical Dispersion Energy =          -0.0036482000000000
    VV10 Nonlocal Energy =                  0.0000000000000000
    Total Energy =                       -228.3487961837951730

Computation Completed


Properties will be evaluated at   0.000000,   0.000000,   0.000000 [a0]

Properties computed using the SCF density matrix

  Nuclear Dipole Moment: [e a0]
     X:     0.5947      Y:    -2.2515      Z:    -4.5780

  Electronic Dipole Moment: [e a0]
     X:    -0.4569      Y:     1.6837      Z:     3.4751

  Dipole Moment: [e a0]
     X:     0.1379      Y:    -0.5677      Z:    -1.1029     Total:     1.2481

  Dipole Moment: [D]
     X:     0.3504      Y:    -1.4430      Z:    -2.8034     Total:     3.1724


*** tstop() called on chem-mcdaniel-u01 at Tue Jan 18 10:19:21 2022
Module time:
	user time   =      21.82 seconds =       0.36 minutes
	system time =       0.45 seconds =       0.01 minutes
	total time  =          2 seconds =       0.03 minutes
Total time:
	user time   =      59.00 seconds =       0.98 minutes
	system time =       1.47 seconds =       0.02 minutes
	total time  =          6 seconds =       0.10 minutes

*** tstart() called on chem-mcdaniel-u01
*** at Tue Jan 18 10:19:21 2022


         ------------------------------------------------------------
                                   SCF GRAD                          
                          Rob Parrish, Justin Turney,                
                       Andy Simmonett, and Alex Sokolov              
         ------------------------------------------------------------

  ==> Geometry <==

    Molecular point group: c1
    Full point group: C1

    Geometry (in Angstrom), charge = -1, multiplicity = 1:

       Center              X                  Y                   Z               Mass       
    ------------   -----------------  -----------------  -----------------  -----------------
         O            1.023443601161     0.614548581322     0.564469899478    15.994914619570
         O           -1.173650183833    -0.010278368889     0.618584236639    15.994914619570
         C           -0.014814961096     0.048029198254     0.114270026536    12.000000000000
         C            0.161680346802    -0.651504401274    -1.280535170953    12.000000000000
         H            0.156282861032     0.123984236048    -2.067089682362     1.007825032230
         H           -0.655893847740    -1.361215265906    -1.486203072465     1.007825032230
         H            1.134797468676    -1.167499891957    -1.336115631469     1.007825032230

  Nuclear repulsion =  110.855938508315788

  ==> Basis Set <==

  Basis Set: 6-311+G(D,P)
    Blend: 6-311+G(D,P)
    Number of shells: 52
    Number of basis function: 106
    Number of Cartesian functions: 110
    Spherical Harmonics?: true
    Max angular momentum: 2

  ==> DFJKGrad: Density-Fitted SCF Gradients <==

    Gradient:                    1
    J tasked:                  Yes
    K tasked:                   No
    wK tasked:                  No
    OpenMP threads:             12
    Integrals threads:          12
    Memory [MiB]:              375
    Schwarz Cutoff:          0E+00
    Fitting Condition:       1E-10

   => Auxiliary Basis Set <=

  Basis Set: (6-311+G(D,P) AUX)
    Blend: HEAVY-AUG-CC-PVTZ-JKFIT
    Number of shells: 150
    Number of basis function: 506
    Number of Cartesian functions: 629
    Spherical Harmonics?: true
    Max angular momentum: 4

  ==> DFT Potential <==

   => Composite Functional: PBE-D3BJ <= 

    PBE GGA Exchange-Correlation Functional

    J.P. Perdew et. al., Phys. Rev. Lett., 77(18), 3865-3868, 1996


    Deriv               =              1
    GGA                 =           TRUE
    Meta                =          FALSE

    Exchange Hybrid     =          FALSE
    MP2 Hybrid          =          FALSE

   => Exchange Functionals <=

    1.0000     XC_GGA_X_PBE

   => Correlation Functionals <=

    1.0000     XC_GGA_C_PBE

   => Molecular Quadrature <=

    Radial Scheme          =       TREUTLER
    Pruning Scheme         =           FLAT
    Nuclear Scheme         =       TREUTLER

    BS radius alpha        =              1
    Pruning alpha          =              1
    Radial Points          =             75
    Spherical Points       =            302
    Total Points           =         158550
    Total Blocks           =           1278
    Max Points             =            256
    Max Functions          =            106


  -Total Gradient:
     Atom            X                  Y                   Z
    ------   -----------------  -----------------  -----------------
       1       -0.000017215946    -0.000010476963     0.000018238720
       2        0.000016136286     0.000000687377     0.000013363024
       3       -0.000010329483    -0.000017374066    -0.000087710285
       4       -0.000010520585     0.000089342611     0.000066010375
       5        0.000008998121    -0.000038998537     0.000041430970
       6        0.000004137290    -0.000022865817    -0.000024115253
       7        0.000018302891    -0.000032421194    -0.000048627115


*** tstop() called on chem-mcdaniel-u01 at Tue Jan 18 10:19:22 2022
Module time:
	user time   =      12.86 seconds =       0.21 minutes
	system time =       0.21 seconds =       0.00 minutes
	total time  =          1 seconds =       0.02 minutes
Total time:
	user time   =      72.21 seconds =       1.20 minutes
	system time =       1.70 seconds =       0.03 minutes
	total time  =          7 seconds =       0.12 minutes

  //>>>>>>>>>>>>>>>>>>>>>>>>>>>>>>>>>>>//
  //    Loading displacement 2 of 31   //
  //<<<<<<<<<<<<<<<<<<<<<<<<<<<<<<<<<<<//
gradient() will perform analytic gradient computation.

*** tstart() called on chem-mcdaniel-u01
*** at Tue Jan 18 10:19:22 2022

   => Loading Basis Set <=

    Name: 6-311+G(D,P)
    Role: ORBITAL
    Keyword: BASIS
    atoms 1-2 entry O          line   171 file /home/jstoppelman3/anaconda3/envs/test_forcebalance/share/psi4/basis/6-311pg_d_p_.gbs 
    atoms 3-4 entry C          line   129 file /home/jstoppelman3/anaconda3/envs/test_forcebalance/share/psi4/basis/6-311pg_d_p_.gbs 
    atoms 5-7 entry H          line    42 file /home/jstoppelman3/anaconda3/envs/test_forcebalance/share/psi4/basis/6-311pg_d_p_.gbs 


         ---------------------------------------------------------
                                   SCF
               by Justin Turney, Rob Parrish, Andy Simmonett
                          and Daniel G. A. Smith
                              RKS Reference
                       12 Threads,    500 MiB Core
         ---------------------------------------------------------

  ==> Geometry <==

    Molecular point group: c1
    Full point group: C1

    Geometry (in Angstrom), charge = -1, multiplicity = 1:

       Center              X                  Y                   Z               Mass       
    ------------   -----------------  -----------------  -----------------  -----------------
         O            1.022935587154     0.614398910491     0.564415224878    15.994914619570
         O           -1.173375679657    -0.010138437376     0.618664329272    15.994914619570
         C           -0.014567261540     0.048028298153     0.114272243739    12.000000000000
         C            0.161739917505    -0.651493739884    -1.280562557534    12.000000000000
         H            0.156391279639     0.124015312375    -2.067097276423     1.007825032230
         H           -0.655942343309    -1.361091183254    -1.486192262060     1.007825032230
         H            1.134784901770    -1.167616706872    -1.336222562982     1.007825032230

  Running in c1 symmetry.

  Rotational constants: A =      0.37509  B =      0.32876  C =      0.18118 [cm^-1]
  Rotational constants: A =  11244.83979  B =   9856.00339  C =   5431.50585 [MHz]
  Nuclear repulsion =  110.874186389483185

  Charge       = -1
  Multiplicity = 1
  Electrons    = 32
  Nalpha       = 16
  Nbeta        = 16

  ==> Algorithm <==

  SCF Algorithm Type is DF.
  DIIS enabled.
  MOM disabled.
  Fractional occupation disabled.
  Guess Type is SAD.
  Energy threshold   = 1.00e-08
  Density threshold  = 1.00e-08
  Integral threshold = 0.00e+00

  ==> Primary Basis <==

  Basis Set: 6-311+G(D,P)
    Blend: 6-311+G(D,P)
    Number of shells: 52
    Number of basis function: 106
    Number of Cartesian functions: 110
    Spherical Harmonics?: true
    Max angular momentum: 2

  ==> DFT Potential <==

   => Composite Functional: PBE-D3BJ <= 

    PBE GGA Exchange-Correlation Functional

    J.P. Perdew et. al., Phys. Rev. Lett., 77(18), 3865-3868, 1996


    Deriv               =              1
    GGA                 =           TRUE
    Meta                =          FALSE

    Exchange Hybrid     =          FALSE
    MP2 Hybrid          =          FALSE

   => Exchange Functionals <=

    1.0000     XC_GGA_X_PBE

   => Correlation Functionals <=

    1.0000     XC_GGA_C_PBE

   => Molecular Quadrature <=

    Radial Scheme          =       TREUTLER
    Pruning Scheme         =           FLAT
    Nuclear Scheme         =       TREUTLER

    BS radius alpha        =              1
    Pruning alpha          =              1
    Radial Points          =             75
    Spherical Points       =            302
    Total Points           =         158550
    Total Blocks           =           1282
    Max Points             =            256
    Max Functions          =            106

   => PBE-D3(BJ): Empirical Dispersion <=

    Grimme's -D3 (BJ-damping) Dispersion Correction
    Grimme S.; Ehrlich S.; Goerigk L. (2011), J. Comput. Chem., 32: 1456

        s6 =       1.000000
        s8 =       0.787500
        a1 =       0.428900
        a2 =       4.440700

   => Loading Basis Set <=

    Name: (6-311+G(D,P) AUX)
    Role: JKFIT
    Keyword: DF_BASIS_SCF
    atoms 1-2 entry O          line   324 file /home/jstoppelman3/anaconda3/envs/test_forcebalance/share/psi4/basis/heavy-aug-cc-pvtz-jkfit.gbs 
    atoms 3-4 entry C          line   200 file /home/jstoppelman3/anaconda3/envs/test_forcebalance/share/psi4/basis/heavy-aug-cc-pvtz-jkfit.gbs 
    atoms 5-7 entry H          line   116 file /home/jstoppelman3/anaconda3/envs/test_forcebalance/share/psi4/basis/heavy-aug-cc-pvtz-jkfit.gbs 

  ==> Pre-Iterations <==

   -------------------------------------------------------
    Irrep   Nso     Nmo     Nalpha   Nbeta   Ndocc  Nsocc
   -------------------------------------------------------
     A        106     106       0       0       0       0
   -------------------------------------------------------
    Total     106     106      16      16      16       0
   -------------------------------------------------------

  ==> Integral Setup <==

  DFHelper Memory: AOs need 0.047 GiB; user supplied 0.047 GiB. Using in-core AOs.

  ==> MemDFJK: Density-Fitted J/K Matrices <==

    J tasked:                   Yes
    K tasked:                    No
    wK tasked:                   No
    OpenMP threads:              12
    Memory [MiB]:                48
    Algorithm:                 Core
    Schwarz Cutoff:           1E-12
    Mask sparsity (%):       0.6052
    Fitting Condition:        1E-10

   => Auxiliary Basis Set <=

  Basis Set: (6-311+G(D,P) AUX)
    Blend: HEAVY-AUG-CC-PVTZ-JKFIT
    Number of shells: 150
    Number of basis function: 506
    Number of Cartesian functions: 629
    Spherical Harmonics?: true
    Max angular momentum: 4

  Cached 100.0% of DFT collocation blocks in 0.393 [GiB].

  Minimum eigenvalue in the overlap matrix is 2.2041113824E-04.
  Using Symmetric Orthogonalization.

  SCF Guess: Superposition of Atomic Densities via on-the-fly atomic UHF.

  ==> Iterations <==

                           Total Energy        Delta E     RMS |[F,P]|

   @DF-RKS iter SAD:  -227.60660423597056   -2.27607e+02   0.00000e+00 
   @DF-RKS iter   1:  -227.76595917594307   -1.59355e-01   1.07062e-02 DIIS
   @DF-RKS iter   2:  -220.14596981113559    7.61999e+00   2.78629e-02 DIIS
   @DF-RKS iter   3:  -227.96267213056709   -7.81670e+00   8.22012e-03 DIIS
   @DF-RKS iter   4:  -228.31192261658052   -3.49250e-01   2.10773e-03 DIIS
   @DF-RKS iter   5:  -228.34139990927602   -2.94773e-02   1.23544e-03 DIIS
   @DF-RKS iter   6:  -228.34710620309838   -5.70629e-03   6.10204e-04 DIIS
   @DF-RKS iter   7:  -228.34867255248790   -1.56635e-03   1.66150e-04 DIIS
   @DF-RKS iter   8:  -228.34875172519790   -7.91727e-05   9.94546e-05 DIIS
   @DF-RKS iter   9:  -228.34879554889201   -4.38237e-05   4.79426e-06 DIIS
   @DF-RKS iter  10:  -228.34879565986591   -1.10974e-07   1.36162e-06 DIIS
   @DF-RKS iter  11:  -228.34879567025706   -1.03911e-08   2.50193e-07 DIIS
   @DF-RKS iter  12:  -228.34879567060253   -3.45466e-10   5.52427e-08 DIIS
   @DF-RKS iter  13:  -228.34879567062004   -1.75078e-11   6.57967e-09 DIIS
  Energy and wave function converged.


  ==> Post-Iterations <==

    Orbital Energies [Eh]
    ---------------------

    Doubly Occupied:                                                      

       1A    -18.487913     2A    -18.487222     3A     -9.762416  
       4A     -9.699246     5A     -0.729770     6A     -0.649756  
       7A     -0.461772     8A     -0.248721     9A     -0.201169  
      10A     -0.191372    11A     -0.173168    12A     -0.139220  
      13A     -0.119999    14A     -0.014401    15A      0.003605  
      16A      0.013911  

    Virtual:                                                              

      17A      0.128884    18A      0.174153    19A      0.174600  
      20A      0.177227    21A      0.208764    22A      0.210648  
      23A      0.213854    24A      0.219764    25A      0.263544  
      26A      0.286266    27A      0.294728    28A      0.341970  
      29A      0.359450    30A      0.375431    31A      0.377477  
      32A      0.386973    33A      0.427620    34A      0.436500  
      35A      0.447176    36A      0.472562    37A      0.476338  
      38A      0.558998    39A      0.579459    40A      0.594178  
      41A      0.614224    42A      0.647823    43A      0.723561  
      44A      0.737674    45A      0.758210    46A      0.807588  
      47A      0.843617    48A      0.880714    49A      0.985146  
      50A      1.006310    51A      1.136006    52A      1.214326  
      53A      1.268683    54A      1.299737    55A      1.311451  
      56A      1.328117    57A      1.342074    58A      1.378999  
      59A      1.515368    60A      1.551801    61A      1.554376  
      62A      1.620639    63A      1.660476    64A      1.666220  
      65A      1.716504    66A      1.737806    67A      1.859838  
      68A      1.941013    69A      1.957274    70A      2.028152  
      71A      2.073514    72A      2.192151    73A      2.314230  
      74A      2.387960    75A      2.523373    76A      2.586289  
      77A      2.607593    78A      2.646406    79A      2.671662  
      80A      2.787164    81A      2.893304    82A      2.969924  
      83A      2.987680    84A      3.012738    85A      3.043156  
      86A      3.132264    87A      3.332095    88A      3.399295  
      89A      3.413470    90A      3.493266    91A      3.639985  
      92A      3.764980    93A      3.852107    94A      3.908535  
      95A      4.163421    96A      4.251668    97A      5.113586  
      98A      5.162010    99A      5.197091   100A      5.256712  
     101A      5.632961   102A      5.944370   103A     23.744737  
     104A     23.854371   105A     49.739691   106A     49.820721  

    Final Occupation by Irrep:
              A 
    DOCC [    16 ]

  @DF-RKS Final Energy:  -228.34879567062004

   => Energetics <=

    Nuclear Repulsion Energy =            110.8741863894831852
    One-Electron Energy =                -538.9638625608165512
    Two-Electron Energy =                 228.8273740058145904
    DFT Exchange-Correlation Energy =     -29.0828451951012568
    Empirical Dispersion Energy =          -0.0036483100000000
    VV10 Nonlocal Energy =                  0.0000000000000000
    Total Energy =                       -228.3487956706200350

Computation Completed


Properties will be evaluated at   0.000000,   0.000000,   0.000000 [a0]

Properties computed using the SCF density matrix

  Nuclear Dipole Moment: [e a0]
     X:     0.5948      Y:    -2.2514      Z:    -4.5781

  Electronic Dipole Moment: [e a0]
     X:    -0.4553      Y:     1.6843      Z:     3.4755

  Dipole Moment: [e a0]
     X:     0.1395      Y:    -0.5671      Z:    -1.1026     Total:     1.2477

  Dipole Moment: [D]
     X:     0.3545      Y:    -1.4414      Z:    -2.8025     Total:     3.1713


*** tstop() called on chem-mcdaniel-u01 at Tue Jan 18 10:19:24 2022
Module time:
	user time   =      22.20 seconds =       0.37 minutes
	system time =       0.38 seconds =       0.01 minutes
	total time  =          2 seconds =       0.03 minutes
Total time:
	user time   =      94.50 seconds =       1.57 minutes
	system time =       2.09 seconds =       0.03 minutes
	total time  =          9 seconds =       0.15 minutes

*** tstart() called on chem-mcdaniel-u01
*** at Tue Jan 18 10:19:24 2022


         ------------------------------------------------------------
                                   SCF GRAD                          
                          Rob Parrish, Justin Turney,                
                       Andy Simmonett, and Alex Sokolov              
         ------------------------------------------------------------

  ==> Geometry <==

    Molecular point group: c1
    Full point group: C1

    Geometry (in Angstrom), charge = -1, multiplicity = 1:

       Center              X                  Y                   Z               Mass       
    ------------   -----------------  -----------------  -----------------  -----------------
         O            1.022935587154     0.614398910491     0.564415224878    15.994914619570
         O           -1.173375679657    -0.010138437376     0.618664329272    15.994914619570
         C           -0.014567261540     0.048028298153     0.114272243739    12.000000000000
         C            0.161739917505    -0.651493739884    -1.280562557534    12.000000000000
         H            0.156391279639     0.124015312375    -2.067097276423     1.007825032230
         H           -0.655942343309    -1.361091183254    -1.486192262060     1.007825032230
         H            1.134784901770    -1.167616706872    -1.336222562982     1.007825032230

  Nuclear repulsion =  110.874186389483185

  ==> Basis Set <==

  Basis Set: 6-311+G(D,P)
    Blend: 6-311+G(D,P)
    Number of shells: 52
    Number of basis function: 106
    Number of Cartesian functions: 110
    Spherical Harmonics?: true
    Max angular momentum: 2

  ==> DFJKGrad: Density-Fitted SCF Gradients <==

    Gradient:                    1
    J tasked:                  Yes
    K tasked:                   No
    wK tasked:                  No
    OpenMP threads:             12
    Integrals threads:          12
    Memory [MiB]:              375
    Schwarz Cutoff:          0E+00
    Fitting Condition:       1E-10

   => Auxiliary Basis Set <=

  Basis Set: (6-311+G(D,P) AUX)
    Blend: HEAVY-AUG-CC-PVTZ-JKFIT
    Number of shells: 150
    Number of basis function: 506
    Number of Cartesian functions: 629
    Spherical Harmonics?: true
    Max angular momentum: 4

  ==> DFT Potential <==

   => Composite Functional: PBE-D3BJ <= 

    PBE GGA Exchange-Correlation Functional

    J.P. Perdew et. al., Phys. Rev. Lett., 77(18), 3865-3868, 1996


    Deriv               =              1
    GGA                 =           TRUE
    Meta                =          FALSE

    Exchange Hybrid     =          FALSE
    MP2 Hybrid          =          FALSE

   => Exchange Functionals <=

    1.0000     XC_GGA_X_PBE

   => Correlation Functionals <=

    1.0000     XC_GGA_C_PBE

   => Molecular Quadrature <=

    Radial Scheme          =       TREUTLER
    Pruning Scheme         =           FLAT
    Nuclear Scheme         =       TREUTLER

    BS radius alpha        =              1
    Pruning alpha          =              1
    Radial Points          =             75
    Spherical Points       =            302
    Total Points           =         158550
    Total Blocks           =           1282
    Max Points             =            256
    Max Functions          =            106


  -Total Gradient:
     Atom            X                  Y                   Z
    ------   -----------------  -----------------  -----------------
       1       -0.000705645616    -0.000330015243    -0.000204522398
       2        0.000167227716     0.000060886674     0.000018592616
       3        0.000526439864     0.000215172268     0.000101366751
       4        0.000001094766     0.000113717724     0.000090297079
       5        0.000008888197    -0.000040589108     0.000041175896
       6       -0.000001384479    -0.000023256992    -0.000021700750
       7        0.000012692504    -0.000028182106    -0.000046618537


*** tstop() called on chem-mcdaniel-u01 at Tue Jan 18 10:19:25 2022
Module time:
	user time   =      12.95 seconds =       0.22 minutes
	system time =       0.27 seconds =       0.00 minutes
	total time  =          1 seconds =       0.02 minutes
Total time:
	user time   =     107.80 seconds =       1.80 minutes
	system time =       2.38 seconds =       0.04 minutes
	total time  =         10 seconds =       0.17 minutes

  //>>>>>>>>>>>>>>>>>>>>>>>>>>>>>>>>>>>//
  //    Loading displacement 3 of 31   //
  //<<<<<<<<<<<<<<<<<<<<<<<<<<<<<<<<<<<//
gradient() will perform analytic gradient computation.

*** tstart() called on chem-mcdaniel-u01
*** at Tue Jan 18 10:19:25 2022

   => Loading Basis Set <=

    Name: 6-311+G(D,P)
    Role: ORBITAL
    Keyword: BASIS
    atoms 1-2 entry O          line   171 file /home/jstoppelman3/anaconda3/envs/test_forcebalance/share/psi4/basis/6-311pg_d_p_.gbs 
    atoms 3-4 entry C          line   129 file /home/jstoppelman3/anaconda3/envs/test_forcebalance/share/psi4/basis/6-311pg_d_p_.gbs 
    atoms 5-7 entry H          line    42 file /home/jstoppelman3/anaconda3/envs/test_forcebalance/share/psi4/basis/6-311pg_d_p_.gbs 


         ---------------------------------------------------------
                                   SCF
               by Justin Turney, Rob Parrish, Andy Simmonett
                          and Daniel G. A. Smith
                              RKS Reference
                       12 Threads,    500 MiB Core
         ---------------------------------------------------------

  ==> Geometry <==

    Molecular point group: c1
    Full point group: C1

    Geometry (in Angstrom), charge = -1, multiplicity = 1:

       Center              X                  Y                   Z               Mass       
    ------------   -----------------  -----------------  -----------------  -----------------
         O            1.023951615168     0.614698252153     0.564524574078    15.994914619570
         O           -1.173924688009    -0.010418300401     0.618504144005    15.994914619570
         C           -0.015062660652     0.048030098355     0.114267809332    12.000000000000
         C            0.161620776099    -0.651515062664    -1.280507784373    12.000000000000
         H            0.156174442425     0.123953159721    -2.067082088301     1.007825032230
         H           -0.655845352171    -1.361339348557    -1.486213882871     1.007825032230
         H            1.134810035582    -1.167383077042    -1.336008699956     1.007825032230

  Running in c1 symmetry.

  Rotational constants: A =      0.37457  B =      0.32879  C =      0.18107 [cm^-1]
  Rotational constants: A =  11229.45475  B =   9857.00056  C =   5428.21311 [MHz]
  Nuclear repulsion =  110.837704658169145

  Charge       = -1
  Multiplicity = 1
  Electrons    = 32
  Nalpha       = 16
  Nbeta        = 16

  ==> Algorithm <==

  SCF Algorithm Type is DF.
  DIIS enabled.
  MOM disabled.
  Fractional occupation disabled.
  Guess Type is SAD.
  Energy threshold   = 1.00e-08
  Density threshold  = 1.00e-08
  Integral threshold = 0.00e+00

  ==> Primary Basis <==

  Basis Set: 6-311+G(D,P)
    Blend: 6-311+G(D,P)
    Number of shells: 52
    Number of basis function: 106
    Number of Cartesian functions: 110
    Spherical Harmonics?: true
    Max angular momentum: 2

  ==> DFT Potential <==

   => Composite Functional: PBE-D3BJ <= 

    PBE GGA Exchange-Correlation Functional

    J.P. Perdew et. al., Phys. Rev. Lett., 77(18), 3865-3868, 1996


    Deriv               =              1
    GGA                 =           TRUE
    Meta                =          FALSE

    Exchange Hybrid     =          FALSE
    MP2 Hybrid          =          FALSE

   => Exchange Functionals <=

    1.0000     XC_GGA_X_PBE

   => Correlation Functionals <=

    1.0000     XC_GGA_C_PBE

   => Molecular Quadrature <=

    Radial Scheme          =       TREUTLER
    Pruning Scheme         =           FLAT
    Nuclear Scheme         =       TREUTLER

    BS radius alpha        =              1
    Pruning alpha          =              1
    Radial Points          =             75
    Spherical Points       =            302
    Total Points           =         158550
    Total Blocks           =           1275
    Max Points             =            256
    Max Functions          =            106

   => PBE-D3(BJ): Empirical Dispersion <=

    Grimme's -D3 (BJ-damping) Dispersion Correction
    Grimme S.; Ehrlich S.; Goerigk L. (2011), J. Comput. Chem., 32: 1456

        s6 =       1.000000
        s8 =       0.787500
        a1 =       0.428900
        a2 =       4.440700

   => Loading Basis Set <=

    Name: (6-311+G(D,P) AUX)
    Role: JKFIT
    Keyword: DF_BASIS_SCF
    atoms 1-2 entry O          line   324 file /home/jstoppelman3/anaconda3/envs/test_forcebalance/share/psi4/basis/heavy-aug-cc-pvtz-jkfit.gbs 
    atoms 3-4 entry C          line   200 file /home/jstoppelman3/anaconda3/envs/test_forcebalance/share/psi4/basis/heavy-aug-cc-pvtz-jkfit.gbs 
    atoms 5-7 entry H          line   116 file /home/jstoppelman3/anaconda3/envs/test_forcebalance/share/psi4/basis/heavy-aug-cc-pvtz-jkfit.gbs 

  ==> Pre-Iterations <==

   -------------------------------------------------------
    Irrep   Nso     Nmo     Nalpha   Nbeta   Ndocc  Nsocc
   -------------------------------------------------------
     A        106     106       0       0       0       0
   -------------------------------------------------------
    Total     106     106      16      16      16       0
   -------------------------------------------------------

  ==> Integral Setup <==

  DFHelper Memory: AOs need 0.047 GiB; user supplied 0.047 GiB. Using in-core AOs.

  ==> MemDFJK: Density-Fitted J/K Matrices <==

    J tasked:                   Yes
    K tasked:                    No
    wK tasked:                   No
    OpenMP threads:              12
    Memory [MiB]:                48
    Algorithm:                 Core
    Schwarz Cutoff:           1E-12
    Mask sparsity (%):       0.6052
    Fitting Condition:        1E-10

   => Auxiliary Basis Set <=

  Basis Set: (6-311+G(D,P) AUX)
    Blend: HEAVY-AUG-CC-PVTZ-JKFIT
    Number of shells: 150
    Number of basis function: 506
    Number of Cartesian functions: 629
    Spherical Harmonics?: true
    Max angular momentum: 4

  Cached 100.0% of DFT collocation blocks in 0.393 [GiB].

  Minimum eigenvalue in the overlap matrix is 2.2050239762E-04.
  Using Symmetric Orthogonalization.

  SCF Guess: Superposition of Atomic Densities via on-the-fly atomic UHF.

  ==> Iterations <==

                           Total Energy        Delta E     RMS |[F,P]|

   @DF-RKS iter SAD:  -227.60490574630597   -2.27605e+02   0.00000e+00 
   @DF-RKS iter   1:  -227.76633066214566   -1.61425e-01   1.07025e-02 DIIS
   @DF-RKS iter   2:  -220.15432233088558    7.61201e+00   2.78484e-02 DIIS
   @DF-RKS iter   3:  -227.96231332369896   -7.80799e+00   8.22537e-03 DIIS
   @DF-RKS iter   4:  -228.31190522920184   -3.49592e-01   2.10765e-03 DIIS
   @DF-RKS iter   5:  -228.34139216490252   -2.94869e-02   1.23595e-03 DIIS
   @DF-RKS iter   6:  -228.34715156096061   -5.75940e-03   6.01234e-04 DIIS
   @DF-RKS iter   7:  -228.34875515087217   -1.60359e-03   9.15998e-05 DIIS
   @DF-RKS iter   8:  -228.34874499979432    1.01511e-05   1.07866e-04 DIIS
   @DF-RKS iter   9:  -228.34879540982186   -5.04100e-05   6.00836e-06 DIIS
   @DF-RKS iter  10:  -228.34879557833207   -1.68510e-07   1.35599e-06 DIIS
   @DF-RKS iter  11:  -228.34879558865364   -1.03216e-08   2.45716e-07 DIIS
   @DF-RKS iter  12:  -228.34879558898712   -3.33472e-10   5.48290e-08 DIIS
   @DF-RKS iter  13:  -228.34879558900505   -1.79341e-11   6.41305e-09 DIIS
  Energy and wave function converged.


  ==> Post-Iterations <==

    Orbital Energies [Eh]
    ---------------------

    Doubly Occupied:                                                      

       1A    -18.488178     2A    -18.487248     3A     -9.762626  
       4A     -9.699306     5A     -0.729460     6A     -0.649603  
       7A     -0.461803     8A     -0.248815     9A     -0.201158  
      10A     -0.191415    11A     -0.173112    12A     -0.139208  
      13A     -0.119873    14A     -0.014428    15A      0.003602  
      16A      0.013816  

    Virtual:                                                              

      17A      0.128871    18A      0.174151    19A      0.174575  
      20A      0.177213    21A      0.208543    22A      0.210642  
      23A      0.213856    24A      0.219778    25A      0.263530  
      26A      0.286237    27A      0.294667    28A      0.341958  
      29A      0.359382    30A      0.375410    31A      0.377403  
      32A      0.386943    33A      0.427561    34A      0.436451  
      35A      0.447081    36A      0.472505    37A      0.476283  
      38A      0.558728    39A      0.578899    40A      0.594029  
      41A      0.614130    42A      0.647669    43A      0.723537  
      44A      0.737637    45A      0.757901    46A      0.807480  
      47A      0.843478    48A      0.880431    49A      0.985047  
      50A      1.006292    51A      1.135895    52A      1.214171  
      53A      1.268641    54A      1.299722    55A      1.311322  
      56A      1.328116    57A      1.342107    58A      1.378898  
      59A      1.515193    60A      1.551805    61A      1.554364  
      62A      1.620604    63A      1.660437    64A      1.666183  
      65A      1.716354    66A      1.737538    67A      1.859652  
      68A      1.940931    69A      1.957254    70A      2.027467  
      71A      2.073270    72A      2.192106    73A      2.314181  
      74A      2.387618    75A      2.523330    76A      2.586259  
      77A      2.607529    78A      2.646361    79A      2.671589  
      80A      2.786908    81A      2.893116    82A      2.969940  
      83A      2.987738    84A      3.012623    85A      3.042953  
      86A      3.131779    87A      3.330379    88A      3.398336  
      89A      3.413155    90A      3.492380    91A      3.638196  
      92A      3.764082    93A      3.851966    94A      3.908457  
      95A      4.163402    96A      4.251573    97A      5.113367  
      98A      5.161892    99A      5.196970   100A      5.256050  
     101A      5.632077   102A      5.943566   103A     23.743220  
     104A     23.853852   105A     49.739331   106A     49.819879  

    Final Occupation by Irrep:
              A 
    DOCC [    16 ]

  @DF-RKS Final Energy:  -228.34879558900505

   => Energetics <=

    Nuclear Repulsion Energy =            110.8377046581691445
    One-Electron Energy =                -538.8912426569850140
    Two-Electron Energy =                 228.7901641040415655
    DFT Exchange-Correlation Energy =     -29.0817735942307749
    Empirical Dispersion Energy =          -0.0036481000000000
    VV10 Nonlocal Energy =                  0.0000000000000000
    Total Energy =                       -228.3487955890050500

Computation Completed


Properties will be evaluated at   0.000000,   0.000000,   0.000000 [a0]

Properties computed using the SCF density matrix

  Nuclear Dipole Moment: [e a0]
     X:     0.5947      Y:    -2.2515      Z:    -4.5779

  Electronic Dipole Moment: [e a0]
     X:    -0.4584      Y:     1.6831      Z:     3.4746

  Dipole Moment: [e a0]
     X:     0.1363      Y:    -0.5684      Z:    -1.1033     Total:     1.2485

  Dipole Moment: [D]
     X:     0.3463      Y:    -1.4446      Z:    -2.8043     Total:     3.1735


*** tstop() called on chem-mcdaniel-u01 at Tue Jan 18 10:19:27 2022
Module time:
	user time   =      22.27 seconds =       0.37 minutes
	system time =       0.44 seconds =       0.01 minutes
	total time  =          2 seconds =       0.03 minutes
Total time:
	user time   =     130.16 seconds =       2.17 minutes
	system time =       2.82 seconds =       0.05 minutes
	total time  =         12 seconds =       0.20 minutes

*** tstart() called on chem-mcdaniel-u01
*** at Tue Jan 18 10:19:27 2022


         ------------------------------------------------------------
                                   SCF GRAD                          
                          Rob Parrish, Justin Turney,                
                       Andy Simmonett, and Alex Sokolov              
         ------------------------------------------------------------

  ==> Geometry <==

    Molecular point group: c1
    Full point group: C1

    Geometry (in Angstrom), charge = -1, multiplicity = 1:

       Center              X                  Y                   Z               Mass       
    ------------   -----------------  -----------------  -----------------  -----------------
         O            1.023951615168     0.614698252153     0.564524574078    15.994914619570
         O           -1.173924688009    -0.010418300401     0.618504144005    15.994914619570
         C           -0.015062660652     0.048030098355     0.114267809332    12.000000000000
         C            0.161620776099    -0.651515062664    -1.280507784373    12.000000000000
         H            0.156174442425     0.123953159721    -2.067082088301     1.007825032230
         H           -0.655845352171    -1.361339348557    -1.486213882871     1.007825032230
         H            1.134810035582    -1.167383077042    -1.336008699956     1.007825032230

  Nuclear repulsion =  110.837704658169145

  ==> Basis Set <==

  Basis Set: 6-311+G(D,P)
    Blend: 6-311+G(D,P)
    Number of shells: 52
    Number of basis function: 106
    Number of Cartesian functions: 110
    Spherical Harmonics?: true
    Max angular momentum: 2

  ==> DFJKGrad: Density-Fitted SCF Gradients <==

    Gradient:                    1
    J tasked:                  Yes
    K tasked:                   No
    wK tasked:                  No
    OpenMP threads:             12
    Integrals threads:          12
    Memory [MiB]:              375
    Schwarz Cutoff:          0E+00
    Fitting Condition:       1E-10

   => Auxiliary Basis Set <=

  Basis Set: (6-311+G(D,P) AUX)
    Blend: HEAVY-AUG-CC-PVTZ-JKFIT
    Number of shells: 150
    Number of basis function: 506
    Number of Cartesian functions: 629
    Spherical Harmonics?: true
    Max angular momentum: 4

  ==> DFT Potential <==

   => Composite Functional: PBE-D3BJ <= 

    PBE GGA Exchange-Correlation Functional

    J.P. Perdew et. al., Phys. Rev. Lett., 77(18), 3865-3868, 1996


    Deriv               =              1
    GGA                 =           TRUE
    Meta                =          FALSE

    Exchange Hybrid     =          FALSE
    MP2 Hybrid          =          FALSE

   => Exchange Functionals <=

    1.0000     XC_GGA_X_PBE

   => Correlation Functionals <=

    1.0000     XC_GGA_C_PBE

   => Molecular Quadrature <=

    Radial Scheme          =       TREUTLER
    Pruning Scheme         =           FLAT
    Nuclear Scheme         =       TREUTLER

    BS radius alpha        =              1
    Pruning alpha          =              1
    Radial Points          =             75
    Spherical Points       =            302
    Total Points           =         158550
    Total Blocks           =           1275
    Max Points             =            256
    Max Functions          =            106


  -Total Gradient:
     Atom            X                  Y                   Z
    ------   -----------------  -----------------  -----------------
       1        0.000668106121     0.000307252076     0.000239607531
       2       -0.000134652770    -0.000059405813     0.000008144581
       3       -0.000544289715    -0.000248232487    -0.000275427825
       4       -0.000022136022     0.000065001497     0.000041752725
       5        0.000009105851    -0.000037409851     0.000041683542
       6        0.000009645580    -0.000022485053    -0.000026534971
       7        0.000023921908    -0.000036667504    -0.000050636338


*** tstop() called on chem-mcdaniel-u01 at Tue Jan 18 10:19:28 2022
Module time:
	user time   =      12.86 seconds =       0.21 minutes
	system time =       0.17 seconds =       0.00 minutes
	total time  =          1 seconds =       0.02 minutes
Total time:
	user time   =     143.40 seconds =       2.39 minutes
	system time =       3.01 seconds =       0.05 minutes
	total time  =         13 seconds =       0.22 minutes

  //>>>>>>>>>>>>>>>>>>>>>>>>>>>>>>>>>>>//
  //    Loading displacement 4 of 31   //
  //<<<<<<<<<<<<<<<<<<<<<<<<<<<<<<<<<<<//
gradient() will perform analytic gradient computation.

*** tstart() called on chem-mcdaniel-u01
*** at Tue Jan 18 10:19:28 2022

   => Loading Basis Set <=

    Name: 6-311+G(D,P)
    Role: ORBITAL
    Keyword: BASIS
    atoms 1-2 entry O          line   171 file /home/jstoppelman3/anaconda3/envs/test_forcebalance/share/psi4/basis/6-311pg_d_p_.gbs 
    atoms 3-4 entry C          line   129 file /home/jstoppelman3/anaconda3/envs/test_forcebalance/share/psi4/basis/6-311pg_d_p_.gbs 
    atoms 5-7 entry H          line    42 file /home/jstoppelman3/anaconda3/envs/test_forcebalance/share/psi4/basis/6-311pg_d_p_.gbs 


         ---------------------------------------------------------
                                   SCF
               by Justin Turney, Rob Parrish, Andy Simmonett
                          and Daniel G. A. Smith
                              RKS Reference
                       12 Threads,    500 MiB Core
         ---------------------------------------------------------

  ==> Geometry <==

    Molecular point group: c1
    Full point group: C1

    Geometry (in Angstrom), charge = -1, multiplicity = 1:

       Center              X                  Y                   Z               Mass       
    ------------   -----------------  -----------------  -----------------  -----------------
         O            1.023443601161     0.614235568140     0.564245438265    15.994914619570
         O           -1.173726132355    -0.010349970198     0.618644502452    15.994914619570
         C           -0.014946661446     0.048432723543     0.114257116330    12.000000000000
         C            0.161853722414    -0.651402653484    -1.280358127768    12.000000000000
         H            0.156004047703     0.123859823836    -2.067132514374     1.007825032230
         H           -0.655351861343    -1.361608111243    -1.485784613629     1.007825032230
         H            1.135243433568    -1.166894723305    -1.335839661426     1.007825032230

  Running in c1 symmetry.

  Rotational constants: A =      0.37484  B =      0.32886  C =      0.18115 [cm^-1]
  Rotational constants: A =  11237.34570  B =   9859.05228  C =   5430.67148 [MHz]
  Nuclear repulsion =  110.863929340669046

  Charge       = -1
  Multiplicity = 1
  Electrons    = 32
  Nalpha       = 16
  Nbeta        = 16

  ==> Algorithm <==

  SCF Algorithm Type is DF.
  DIIS enabled.
  MOM disabled.
  Fractional occupation disabled.
  Guess Type is SAD.
  Energy threshold   = 1.00e-08
  Density threshold  = 1.00e-08
  Integral threshold = 0.00e+00

  ==> Primary Basis <==

  Basis Set: 6-311+G(D,P)
    Blend: 6-311+G(D,P)
    Number of shells: 52
    Number of basis function: 106
    Number of Cartesian functions: 110
    Spherical Harmonics?: true
    Max angular momentum: 2

  ==> DFT Potential <==

   => Composite Functional: PBE-D3BJ <= 

    PBE GGA Exchange-Correlation Functional

    J.P. Perdew et. al., Phys. Rev. Lett., 77(18), 3865-3868, 1996


    Deriv               =              1
    GGA                 =           TRUE
    Meta                =          FALSE

    Exchange Hybrid     =          FALSE
    MP2 Hybrid          =          FALSE

   => Exchange Functionals <=

    1.0000     XC_GGA_X_PBE

   => Correlation Functionals <=

    1.0000     XC_GGA_C_PBE

   => Molecular Quadrature <=

    Radial Scheme          =       TREUTLER
    Pruning Scheme         =           FLAT
    Nuclear Scheme         =       TREUTLER

    BS radius alpha        =              1
    Pruning alpha          =              1
    Radial Points          =             75
    Spherical Points       =            302
    Total Points           =         158550
    Total Blocks           =           1278
    Max Points             =            256
    Max Functions          =            106

   => PBE-D3(BJ): Empirical Dispersion <=

    Grimme's -D3 (BJ-damping) Dispersion Correction
    Grimme S.; Ehrlich S.; Goerigk L. (2011), J. Comput. Chem., 32: 1456

        s6 =       1.000000
        s8 =       0.787500
        a1 =       0.428900
        a2 =       4.440700

   => Loading Basis Set <=

    Name: (6-311+G(D,P) AUX)
    Role: JKFIT
    Keyword: DF_BASIS_SCF
    atoms 1-2 entry O          line   324 file /home/jstoppelman3/anaconda3/envs/test_forcebalance/share/psi4/basis/heavy-aug-cc-pvtz-jkfit.gbs 
    atoms 3-4 entry C          line   200 file /home/jstoppelman3/anaconda3/envs/test_forcebalance/share/psi4/basis/heavy-aug-cc-pvtz-jkfit.gbs 
    atoms 5-7 entry H          line   116 file /home/jstoppelman3/anaconda3/envs/test_forcebalance/share/psi4/basis/heavy-aug-cc-pvtz-jkfit.gbs 

  ==> Pre-Iterations <==

   -------------------------------------------------------
    Irrep   Nso     Nmo     Nalpha   Nbeta   Ndocc  Nsocc
   -------------------------------------------------------
     A        106     106       0       0       0       0
   -------------------------------------------------------
    Total     106     106      16      16      16       0
   -------------------------------------------------------

  ==> Integral Setup <==

  DFHelper Memory: AOs need 0.047 GiB; user supplied 0.047 GiB. Using in-core AOs.

  ==> MemDFJK: Density-Fitted J/K Matrices <==

    J tasked:                   Yes
    K tasked:                    No
    wK tasked:                   No
    OpenMP threads:              12
    Memory [MiB]:                48
    Algorithm:                 Core
    Schwarz Cutoff:           1E-12
    Mask sparsity (%):       0.6052
    Fitting Condition:        1E-10

   => Auxiliary Basis Set <=

  Basis Set: (6-311+G(D,P) AUX)
    Blend: HEAVY-AUG-CC-PVTZ-JKFIT
    Number of shells: 150
    Number of basis function: 506
    Number of Cartesian functions: 629
    Spherical Harmonics?: true
    Max angular momentum: 4

  Cached 100.0% of DFT collocation blocks in 0.393 [GiB].

  Minimum eigenvalue in the overlap matrix is 2.2046382321E-04.
  Using Symmetric Orthogonalization.

  SCF Guess: Superposition of Atomic Densities via on-the-fly atomic UHF.

  ==> Iterations <==

                           Total Energy        Delta E     RMS |[F,P]|

   @DF-RKS iter SAD:  -227.60612903941521   -2.27606e+02   0.00000e+00 
   @DF-RKS iter   1:  -227.76606549184032   -1.59936e-01   1.07050e-02 DIIS
   @DF-RKS iter   2:  -220.15449536950894    7.61157e+00   2.78517e-02 DIIS
   @DF-RKS iter   3:  -227.96286610742465   -7.80837e+00   8.21974e-03 DIIS
   @DF-RKS iter   4:  -228.31189785729708   -3.49032e-01   2.10860e-03 DIIS
   @DF-RKS iter   5:  -228.34138842416857   -2.94906e-02   1.23647e-03 DIIS
   @DF-RKS iter   6:  -228.34712701607813   -5.73859e-03   6.06233e-04 DIIS
   @DF-RKS iter   7:  -228.34870447715596   -1.57746e-03   1.42347e-04 DIIS
   @DF-RKS iter   8:  -228.34874674168637   -4.22645e-05   1.05686e-04 DIIS
   @DF-RKS iter   9:  -228.34879584226547   -4.91006e-05   4.95598e-06 DIIS
   @DF-RKS iter  10:  -228.34879596018587   -1.17920e-07   1.34953e-06 DIIS
   @DF-RKS iter  11:  -228.34879597038213   -1.01963e-08   2.48447e-07 DIIS
   @DF-RKS iter  12:  -228.34879597072336   -3.41231e-10   5.51091e-08 DIIS
   @DF-RKS iter  13:  -228.34879597074084   -1.74794e-11   6.52723e-09 DIIS
  Energy and wave function converged.


  ==> Post-Iterations <==

    Orbital Energies [Eh]
    ---------------------

    Doubly Occupied:                                                      

       1A    -18.488033     2A    -18.487249     3A     -9.762493  
       4A     -9.699223     5A     -0.729681     6A     -0.649770  
       7A     -0.461745     8A     -0.248740     9A     -0.201150  
      10A     -0.191361    11A     -0.173161    12A     -0.139243  
      13A     -0.119962    14A     -0.014445    15A      0.003633  
      16A      0.013826  

    Virtual:                                                              

      17A      0.128893    18A      0.174159    19A      0.174601  
      20A      0.177224    21A      0.208715    22A      0.210643  
      23A      0.213851    24A      0.219767    25A      0.263530  
      26A      0.286268    27A      0.294715    28A      0.341996  
      29A      0.359420    30A      0.375428    31A      0.377485  
      32A      0.386958    33A      0.427568    34A      0.436440  
      35A      0.447126    36A      0.472561    37A      0.476297  
      38A      0.558838    39A      0.579335    40A      0.594183  
      41A      0.614242    42A      0.647763    43A      0.723581  
      44A      0.737683    45A      0.758172    46A      0.807590  
      47A      0.843469    48A      0.880646    49A      0.985134  
      50A      1.006346    51A      1.135974    52A      1.214215  
      53A      1.268672    54A      1.299853    55A      1.311297  
      56A      1.328084    57A      1.342132    58A      1.378797  
      59A      1.515442    60A      1.551833    61A      1.554398  
      62A      1.620621    63A      1.660467    64A      1.666255  
      65A      1.716368    66A      1.737679    67A      1.859891  
      68A      1.940951    69A      1.957289    70A      2.028170  
      71A      2.073409    72A      2.192188    73A      2.314216  
      74A      2.387725    75A      2.523386    76A      2.586313  
      77A      2.607612    78A      2.646465    79A      2.671680  
      80A      2.787055    81A      2.893198    82A      2.969901  
      83A      2.987707    84A      3.012733    85A      3.043097  
      86A      3.132121    87A      3.331587    88A      3.398832  
      89A      3.413799    90A      3.493016    91A      3.639044  
      92A      3.764778    93A      3.852133    94A      3.908608  
      95A      4.163251    96A      4.251723    97A      5.113518  
      98A      5.161944    99A      5.197085   100A      5.256387  
     101A      5.632840   102A      5.944016   103A     23.744333  
     104A     23.854262   105A     49.739615   106A     49.820398  

    Final Occupation by Irrep:
              A 
    DOCC [    16 ]

  @DF-RKS Final Energy:  -228.34879597074084

   => Energetics <=

    Nuclear Repulsion Energy =            110.8639293406690456
    One-Electron Energy =                -538.9432241956118332
    Two-Electron Energy =                 228.8166767978769087
    DFT Exchange-Correlation Energy =     -29.0825295736749716
    Empirical Dispersion Energy =          -0.0036483400000000
    VV10 Nonlocal Energy =                  0.0000000000000000
    Total Energy =                       -228.3487959707408379

Computation Completed


Properties will be evaluated at   0.000000,   0.000000,   0.000000 [a0]

Properties computed using the SCF density matrix

  Nuclear Dipole Moment: [e a0]
     X:     0.5954      Y:    -2.2514      Z:    -4.5774

  Electronic Dipole Moment: [e a0]
     X:    -0.4569      Y:     1.6844      Z:     3.4751

  Dipole Moment: [e a0]
     X:     0.1385      Y:    -0.5669      Z:    -1.1022     Total:     1.2472

  Dipole Moment: [D]
     X:     0.3520      Y:    -1.4410      Z:    -2.8016     Total:     3.1701


*** tstop() called on chem-mcdaniel-u01 at Tue Jan 18 10:19:30 2022
Module time:
	user time   =      22.49 seconds =       0.37 minutes
	system time =       0.48 seconds =       0.01 minutes
	total time  =          2 seconds =       0.03 minutes
Total time:
	user time   =     165.98 seconds =       2.77 minutes
	system time =       3.49 seconds =       0.06 minutes
	total time  =         15 seconds =       0.25 minutes

*** tstart() called on chem-mcdaniel-u01
*** at Tue Jan 18 10:19:30 2022


         ------------------------------------------------------------
                                   SCF GRAD                          
                          Rob Parrish, Justin Turney,                
                       Andy Simmonett, and Alex Sokolov              
         ------------------------------------------------------------

  ==> Geometry <==

    Molecular point group: c1
    Full point group: C1

    Geometry (in Angstrom), charge = -1, multiplicity = 1:

       Center              X                  Y                   Z               Mass       
    ------------   -----------------  -----------------  -----------------  -----------------
         O            1.023443601161     0.614235568140     0.564245438265    15.994914619570
         O           -1.173726132355    -0.010349970198     0.618644502452    15.994914619570
         C           -0.014946661446     0.048432723543     0.114257116330    12.000000000000
         C            0.161853722414    -0.651402653484    -1.280358127768    12.000000000000
         H            0.156004047703     0.123859823836    -2.067132514374     1.007825032230
         H           -0.655351861343    -1.361608111243    -1.485784613629     1.007825032230
         H            1.135243433568    -1.166894723305    -1.335839661426     1.007825032230

  Nuclear repulsion =  110.863929340669046

  ==> Basis Set <==

  Basis Set: 6-311+G(D,P)
    Blend: 6-311+G(D,P)
    Number of shells: 52
    Number of basis function: 106
    Number of Cartesian functions: 110
    Spherical Harmonics?: true
    Max angular momentum: 2

  ==> DFJKGrad: Density-Fitted SCF Gradients <==

[...]
     101A      5.632644   102A      5.943996   103A     23.744318  
     104A     23.856450   105A     49.739541   106A     49.820311  

    Final Occupation by Irrep:
              A 
    DOCC [    16 ]

  @DF-RKS Final Energy:  -228.34879316029844

   => Energetics <=

    Nuclear Repulsion Energy =            110.8665371256874153
    One-Electron Energy =                -538.9481984027866019
    Two-Electron Energy =                 228.8198858111470599
    DFT Exchange-Correlation Energy =     -29.0833692743462855
    Empirical Dispersion Energy =          -0.0036484200000000
    VV10 Nonlocal Energy =                  0.0000000000000000
    Total Energy =                       -228.3487931602984418

Computation Completed


Properties will be evaluated at   0.000000,   0.000000,   0.000000 [a0]

Properties computed using the SCF density matrix

  Nuclear Dipole Moment: [e a0]
     X:     0.5947      Y:    -2.2515      Z:    -4.5780

  Electronic Dipole Moment: [e a0]
     X:    -0.4567      Y:     1.6827      Z:     3.4745

  Dipole Moment: [e a0]
     X:     0.1380      Y:    -0.5688      Z:    -1.1035     Total:     1.2491

  Dipole Moment: [D]
     X:     0.3509      Y:    -1.4457      Z:    -2.8048     Total:     3.1749


*** tstop() called on chem-mcdaniel-u01 at Tue Jan 18 10:20:55 2022
Module time:
	user time   =      22.06 seconds =       0.37 minutes
	system time =       0.39 seconds =       0.01 minutes
	total time  =          2 seconds =       0.03 minutes
Total time:
	user time   =    1126.04 seconds =      18.77 minutes
	system time =      21.99 seconds =       0.37 minutes
	total time  =        100 seconds =       1.67 minutes

*** tstart() called on chem-mcdaniel-u01
*** at Tue Jan 18 10:20:55 2022


         ------------------------------------------------------------
                                   SCF GRAD                          
                          Rob Parrish, Justin Turney,                
                       Andy Simmonett, and Alex Sokolov              
         ------------------------------------------------------------

  ==> Geometry <==

    Molecular point group: c1
    Full point group: C1

    Geometry (in Angstrom), charge = -1, multiplicity = 1:

       Center              X                  Y                   Z               Mass       
    ------------   -----------------  -----------------  -----------------  -----------------
         O            1.023443601161     0.614548581322     0.564469899478    15.994914619570
         O           -1.173650183833    -0.010278368889     0.618584236639    15.994914619570
         C           -0.014814961096     0.048029198254     0.114270026536    12.000000000000
         C            0.161680346802    -0.651504401274    -1.280535170953    12.000000000000
         H            0.156282861032     0.123984236048    -2.067089682362     1.007825032230
         H           -0.654047410697    -1.361015520009    -1.486048312676     1.007825032230
         H            1.132951031633    -1.167699637853    -1.336270391258     1.007825032230

  Nuclear repulsion =  110.866537125687415

  ==> Basis Set <==

  Basis Set: 6-311+G(D,P)
    Blend: 6-311+G(D,P)
    Number of shells: 52
    Number of basis function: 106
    Number of Cartesian functions: 110
    Spherical Harmonics?: true
    Max angular momentum: 2

  ==> DFJKGrad: Density-Fitted SCF Gradients <==

    Gradient:                    1
    J tasked:                  Yes
    K tasked:                   No
    wK tasked:                  No
    OpenMP threads:             12
    Integrals threads:          12
    Memory [MiB]:              375
    Schwarz Cutoff:          0E+00
    Fitting Condition:       1E-10

   => Auxiliary Basis Set <=

  Basis Set: (6-311+G(D,P) AUX)
    Blend: HEAVY-AUG-CC-PVTZ-JKFIT
    Number of shells: 150
    Number of basis function: 506
    Number of Cartesian functions: 629
    Spherical Harmonics?: true
    Max angular momentum: 4

  ==> DFT Potential <==

   => Composite Functional: PBE-D3BJ <= 

    PBE GGA Exchange-Correlation Functional

    J.P. Perdew et. al., Phys. Rev. Lett., 77(18), 3865-3868, 1996


    Deriv               =              1
    GGA                 =           TRUE
    Meta                =          FALSE

    Exchange Hybrid     =          FALSE
    MP2 Hybrid          =          FALSE

   => Exchange Functionals <=

    1.0000     XC_GGA_X_PBE

   => Correlation Functionals <=

    1.0000     XC_GGA_C_PBE

   => Molecular Quadrature <=

    Radial Scheme          =       TREUTLER
    Pruning Scheme         =           FLAT
    Nuclear Scheme         =       TREUTLER

    BS radius alpha        =              1
    Pruning alpha          =              1
    Radial Points          =             75
    Spherical Points       =            302
    Total Points           =         158550
    Total Blocks           =           1274
    Max Points             =            256
    Max Functions          =            106


  -Total Gradient:
     Atom            X                  Y                   Z
    ------   -----------------  -----------------  -----------------
       1       -0.000016493822    -0.000012881706     0.000011624345
       2        0.000019938384     0.000001295604     0.000006714253
       3       -0.000016940003    -0.000005488900    -0.000076407516
       4        0.000085649433    -0.000716530507    -0.000076302640
       5        0.000009051744    -0.000030913125     0.000039491024
       6        0.000822953700     0.000464443448     0.000122177004
       7       -0.000894674143     0.000267981177    -0.000048669772


*** tstop() called on chem-mcdaniel-u01 at Tue Jan 18 10:20:56 2022
Module time:
	user time   =      12.75 seconds =       0.21 minutes
	system time =       0.22 seconds =       0.00 minutes
	total time  =          1 seconds =       0.02 minutes
Total time:
	user time   =    1139.17 seconds =      18.99 minutes
	system time =      22.23 seconds =       0.37 minutes
	total time  =        101 seconds =       1.68 minutes

         ----------------------------------------------------------
                                   FINDIF
                     R. A. King and Jonathon Misiewicz
         ---------------------------------------------------------

  Computing second-derivative from gradients using projected, 
  symmetry-adapted, cartesian coordinates.

  31 gradients passed in, including the reference geometry.
  Generating complete list of displacements from unique ones.


-------------------------------------------------------------


  ==> Harmonic Vibrational Analysis <==

  non-mass-weighted Hessian:       Symmetric? True   Hermitian? True   Lin Dep Dim?  6 (0)
  projection of translations (True) and rotations (True) removed 6 degrees of freedom (6)
  total projector:                 Symmetric? True   Hermitian? True   Lin Dep Dim?  6 (6)
  mass-weighted Hessian:           Symmetric? True   Hermitian? True   Lin Dep Dim?  6 (0)
  pre-proj  low-frequency mode:    0.0000i [cm^-1]
  pre-proj  low-frequency mode:    0.0000i [cm^-1]
  pre-proj  low-frequency mode:    0.0000i [cm^-1]
  pre-proj  low-frequency mode:    0.0000i [cm^-1]
  pre-proj  low-frequency mode:    0.0000  [cm^-1]
  pre-proj  low-frequency mode:    0.0000  [cm^-1]
  pre-proj  low-frequency mode:    0.0000  [cm^-1]
  pre-proj  all modes:['15.4952i' '0.0000i' '0.0000i' '0.0000i' '0.0000' '0.0000' '0.0000'
 '418.3079' '576.5181' '603.1581' '832.8576' '950.8738' '981.4610'
 '1258.6842' '1294.3106' '1409.8230' '1421.9169' '1608.8684' '2934.0954'
 '3006.3926' '3019.6918']
  projected mass-weighted Hessian: Symmetric? True   Hermitian? True   Lin Dep Dim?  6 (6)
  post-proj low-frequency mode:   15.4952i [cm^-1] (V)
  post-proj low-frequency mode:    0.0000i [cm^-1] (TR)
  post-proj low-frequency mode:    0.0000i [cm^-1] (TR)
  post-proj low-frequency mode:    0.0000i [cm^-1] (TR)
  post-proj low-frequency mode:    0.0000i [cm^-1] (TR)
  post-proj low-frequency mode:    0.0000  [cm^-1] (TR)
  post-proj low-frequency mode:    0.0000  [cm^-1] (TR)
  post-proj  all modes:['15.4952i' '0.0000i' '0.0000i' '0.0000i' '0.0000i' '0.0000' '0.0000'
 '418.3079' '576.5181' '603.1581' '832.8576' '950.8738' '981.4610'
 '1258.6842' '1294.3106' '1409.8230' '1421.9169' '1608.8684' '2934.0954'
 '3006.3926' '3019.6918']

  Vibration                       1                   8                   9           
  Freq [cm^-1]                 15.4952i            418.3079            576.5181       
  Irrep                           A                   A                   A           
  Reduced mass [u]              1.0871              2.9665              2.7698        
  Force const [mDyne/A]        -0.0002              0.3058              0.5424        
  Turning point v=0 [a0]        0.0000              0.3115              0.2746        
  RMS dev v=0 [a0 u^1/2]        0.0000              0.3794              0.3231        
  Char temp [K]                 0.0000             601.8519            829.4812       
  ----------------------------------------------------------------------------------
      1   O               -0.01  0.03 -0.03    0.02  0.11  0.18   -0.05 -0.06  0.12   
      2   O                0.01 -0.04  0.03    0.07 -0.08 -0.17    0.07 -0.02  0.12   
      3   C               -0.01  0.01 -0.00    0.14  0.04 -0.01   -0.07  0.22 -0.15   
      4   C                0.00  0.01 -0.00   -0.18 -0.05 -0.00    0.02 -0.04 -0.17   
      5   H                0.62  0.04  0.03   -0.25 -0.15 -0.10    0.10 -0.52 -0.63   
      6   H               -0.26  0.39 -0.26   -0.47  0.18  0.40    0.11 -0.24  0.14   
      7   H               -0.22 -0.45  0.25   -0.36 -0.37 -0.30    0.03 -0.07  0.29   

  Vibration                       10                  11                  12          
  Freq [cm^-1]                 603.1581            832.8576            950.8738       
  Irrep                           A                   A                   A           
  Reduced mass [u]              4.1127              7.7130              1.4566        
  Force const [mDyne/A]         0.8815              3.1522              0.7760        
  Turning point v=0 [a0]        0.2203              0.1369              0.2948        
  RMS dev v=0 [a0 u^1/2]        0.3159              0.2689              0.2516        
  Char temp [K]                867.8103           1198.2966           1368.0957       
  ----------------------------------------------------------------------------------
      1   O                0.16 -0.10 -0.11    0.32  0.09 -0.01   -0.03 -0.03 -0.04   
      2   O               -0.08 -0.17 -0.11   -0.32 -0.09  0.00   -0.05  0.01  0.04   
      3   C               -0.06  0.21 -0.06   -0.05  0.19  0.39   -0.01 -0.01 -0.00   
      4   C               -0.05  0.16  0.26    0.04 -0.15 -0.29    0.16  0.05  0.00   
      5   H                0.03 -0.20 -0.09    0.02 -0.15 -0.30   -0.19 -0.11 -0.15   
      6   H                0.01  0.02  0.52    0.06 -0.16 -0.37   -0.23  0.32  0.62   
      7   H               -0.03  0.16  0.64    0.02 -0.20 -0.39   -0.09 -0.36 -0.46   

  Vibration                       13                  14                  15          
  Freq [cm^-1]                 981.4610           1258.6842           1294.3106       
  Irrep                           A                   A                   A           
  Reduced mass [u]              1.9470              1.2577             10.5060        
  Force const [mDyne/A]         1.1050              1.1740             10.3697        
  Turning point v=0 [a0]        0.2510              0.2758              0.0941        
  RMS dev v=0 [a0 u^1/2]        0.2477              0.2187              0.2157        
  Char temp [K]               1412.1038           1810.9663           1862.2248       
  ----------------------------------------------------------------------------------
      1   O                0.00 -0.04  0.02    0.02  0.01  0.01   -0.30 -0.19 -0.18   
      2   O                0.02 -0.04  0.02   -0.02 -0.00  0.01    0.35 -0.01 -0.20   
      3   C               -0.06  0.20 -0.11    0.00 -0.01 -0.03   -0.07  0.29  0.57   
      4   C                0.04 -0.14  0.07    0.02 -0.06 -0.13    0.02 -0.03 -0.11   
      5   H               -0.14  0.39  0.57   -0.09  0.42  0.39   -0.12  0.22  0.15   
      6   H               -0.10  0.15 -0.32   -0.23  0.09  0.50   -0.04 -0.06  0.24   
      7   H                0.07 -0.00 -0.53    0.12  0.12  0.55   -0.01 -0.13  0.30   

  Vibration                       16                  17                  18          
  Freq [cm^-1]                1409.8230           1421.9169           1608.8684       
  Irrep                           A                   A                   A           
  Reduced mass [u]              1.0660              1.0563             10.1782        
  Force const [mDyne/A]         1.2483              1.2583             15.5225        
  Turning point v=0 [a0]        0.2830              0.2831              0.0857        
  RMS dev v=0 [a0 u^1/2]        0.2066              0.2058              0.1934        
  Char temp [K]               2028.4214           2045.8218           2314.8033       
  ----------------------------------------------------------------------------------
      1   O               -0.02 -0.01 -0.01   -0.01 -0.00 -0.00   -0.25 -0.13 -0.10   
      2   O               -0.01  0.00  0.00    0.01  0.00 -0.00   -0.28 -0.02  0.11   
      3   C                0.02  0.01  0.01    0.00 -0.01  0.02    0.74  0.21 -0.02   
      4   C               -0.06 -0.02 -0.01    0.02 -0.05  0.02   -0.04 -0.01  0.00   
      5   H                0.71  0.02  0.02   -0.11 -0.28 -0.24   -0.19  0.03  0.03   
      6   H               -0.04 -0.12  0.39   -0.43  0.53 -0.18    0.11 -0.02 -0.31   
      7   H                0.16  0.38 -0.39    0.30  0.50  0.08    0.00 -0.04  0.28   

  Vibration                       19                  20                  21          
  Freq [cm^-1]                2934.0954           3006.3926           3019.6918       
  Irrep                           A                   A                   A           
  Reduced mass [u]              1.0313              1.0995              1.1036        
  Force const [mDyne/A]         5.2311              5.8552              5.9292        
  Turning point v=0 [a0]        0.1995              0.1908              0.1901        
  RMS dev v=0 [a0 u^1/2]        0.1432              0.1415              0.1412        
  Char temp [K]               4221.5101           4325.5296           4344.6642       
  ----------------------------------------------------------------------------------
      1   O                0.00  0.00  0.00   -0.00  0.00 -0.00    0.00  0.00 -0.00   
      2   O               -0.00  0.00  0.00    0.00  0.00 -0.00    0.00  0.00 -0.00   
      3   C                0.00 -0.00 -0.00    0.00 -0.00  0.00   -0.01 -0.00  0.00   
      4   C               -0.01  0.01  0.04    0.02 -0.08  0.04   -0.09 -0.02 -0.00   
      5   H               -0.01  0.45 -0.42    0.00  0.54 -0.54   -0.02  0.09 -0.09   
      6   H               -0.41 -0.35 -0.08    0.24  0.18  0.06    0.58  0.50  0.13   
      7   H                0.50 -0.26 -0.00   -0.50  0.24  0.03    0.53 -0.29 -0.02   

  ==> Thermochemistry Components <==

  Entropy, S
    Electronic S            0.000 [cal/(mol K)]        0.000 [J/(mol K)]       0.00000000 [mEh/K] (multiplicity = 1)
    Translational S        38.146 [cal/(mol K)]      159.602 [J/(mol K)]       0.06078935 [mEh/K] (mol. weight = 59.0133 [u], P = 101325.00 [Pa])
    Rotational S           23.795 [cal/(mol K)]       99.559 [J/(mol K)]       0.03792000 [mEh/K] (symmetry no. = 1)
    Vibrational S           2.332 [cal/(mol K)]        9.758 [J/(mol K)]       0.00371664 [mEh/K]
  Total S                  64.273 [cal/(mol K)]      268.919 [J/(mol K)]       0.10242599 [mEh/K]
  Correction S              0.000 [cal/(mol K)]        0.000 [J/(mol K)]       0.00000000 [mEh/K]

  Constant volume heat capacity, Cv
    Electronic Cv           0.000 [cal/(mol K)]        0.000 [J/(mol K)]       0.00000000 [mEh/K]
    Translational Cv        2.981 [cal/(mol K)]       12.472 [J/(mol K)]       0.00475022 [mEh/K]
    Rotational Cv           2.981 [cal/(mol K)]       12.472 [J/(mol K)]       0.00475022 [mEh/K]
    Vibrational Cv          5.540 [cal/(mol K)]       23.181 [J/(mol K)]       0.00882915 [mEh/K]
  Total Cv                 11.502 [cal/(mol K)]       48.124 [J/(mol K)]       0.01832958 [mEh/K]
  Correction Cv             0.000 [cal/(mol K)]        0.000 [J/(mol K)]       0.00000000 [mEh/K]

  Constant pressure heat capacity, Cp
    Electronic Cp           0.000 [cal/(mol K)]        0.000 [J/(mol K)]       0.00000000 [mEh/K]
    Translational Cp        4.968 [cal/(mol K)]       20.786 [J/(mol K)]       0.00791703 [mEh/K]
    Rotational Cp           2.981 [cal/(mol K)]       12.472 [J/(mol K)]       0.00475022 [mEh/K]
    Vibrational Cp          5.540 [cal/(mol K)]       23.181 [J/(mol K)]       0.00882915 [mEh/K]
  Total Cp                 13.489 [cal/(mol K)]       56.439 [J/(mol K)]       0.02149639 [mEh/K]
  Correction Cp             0.000 [cal/(mol K)]        0.000 [J/(mol K)]       0.00000000 [mEh/K]

  ==> Thermochemistry Energy Analysis <==

  Raw electronic energy, E0
  Total E0, Electronic energy at well bottom at 0 [K]                 -228.34879618 [Eh]

  Zero-point energy, ZPE_vib = Sum_i nu_i / 2
    Electronic ZPE          0.000 [kcal/mol]        0.000 [kJ/mol]       0.00000000 [Eh]
    Translational ZPE       0.000 [kcal/mol]        0.000 [kJ/mol]       0.00000000 [Eh]
    Rotational ZPE          0.000 [kcal/mol]        0.000 [kJ/mol]       0.00000000 [Eh]
    Vibrational ZPE        29.045 [kcal/mol]      121.522 [kJ/mol]       0.04628544 [Eh]       10158.480 [cm^-1]
  Correction ZPE           29.045 [kcal/mol]      121.522 [kJ/mol]       0.04628544 [Eh]       10158.480 [cm^-1]
  Total ZPE, Electronic energy at 0 [K]                               -228.30251074 [Eh]

  Thermal Energy, E (includes ZPE)
    Electronic E            0.000 [kcal/mol]        0.000 [kJ/mol]       0.00000000 [Eh]
    Translational E         0.889 [kcal/mol]        3.718 [kJ/mol]       0.00141628 [Eh]
    Rotational E            0.889 [kcal/mol]        3.718 [kJ/mol]       0.00141628 [Eh]
    Vibrational E          29.558 [kcal/mol]      123.672 [kJ/mol]       0.04710425 [Eh]
  Correction E             31.336 [kcal/mol]      131.109 [kJ/mol]       0.04993680 [Eh]
  Total E, Electronic energy at  298.15 [K]                           -228.29885938 [Eh]

  Enthalpy, H_trans = E_trans + k_B * T
    Electronic H            0.000 [kcal/mol]        0.000 [kJ/mol]       0.00000000 [Eh]
    Translational H         1.481 [kcal/mol]        6.197 [kJ/mol]       0.00236046 [Eh]
    Rotational H            0.889 [kcal/mol]        3.718 [kJ/mol]       0.00141628 [Eh]
    Vibrational H          29.558 [kcal/mol]      123.672 [kJ/mol]       0.04710425 [Eh]
  Correction H             31.928 [kcal/mol]      133.588 [kJ/mol]       0.05088099 [Eh]
  Total H, Enthalpy at  298.15 [K]                                    -228.29791519 [Eh]

  Gibbs free energy, G = H - T * S
    Electronic G            0.000 [kcal/mol]        0.000 [kJ/mol]       0.00000000 [Eh]
    Translational G        -9.892 [kcal/mol]      -41.388 [kJ/mol]      -0.01576388 [Eh]
    Rotational G           -6.206 [kcal/mol]      -25.965 [kJ/mol]      -0.00988957 [Eh]
    Vibrational G          28.863 [kcal/mol]      120.763 [kJ/mol]       0.04599613 [Eh]
  Correction G             12.765 [kcal/mol]       53.410 [kJ/mol]       0.02034268 [Eh]
  Total G, Free enthalpy at  298.15 [K]                               -228.32845350 [Eh]

    Psi4 stopped on: Tuesday, 18 January 2022 10:20AM
    Psi4 wall time for execution: 0:01:41.04

*** Psi4 exiting successfully. Buy a developer a beer!
