Running installed copy in /home/leeping/opt/qchem-4.2.
This is a multi-thread run using 1 threads
/home/leeping/opt/qchem-4.2/exe/qcprog.exe .frequency.qcin.27545.qcin.1 ./qchem27545/
                  Welcome to Q-Chem
     A Quantum Leap Into The Future Of Chemistry

 Y. Shao, L. Fusti-Molnar, Y. Jung, J. Kussmann, C. Ochsenfeld, S. T. Brown, 
 A. T. B. Gilbert, L. V. Slipchenko, S. V. Levchenko, D. P. O'Neill, 
 R. A. DiStasio Jr., R. C. Lochan, T. Wang, G. J. O. Beran, N. A. Besley, 
 J. M. Herbert, C. Y. Lin, T. Van Voorhis, S. H. Chien, A. Sodt, R. P. Steele, 
 V. A. Rassolov, P. E. Maslen, P. P. Korambath, R. D. Adamson, B. Austin, 
 J. Baker, E. F. C. Byrd, H. Dachsel, R. J. Doerksen, A. Dreuw, B. D. Dunietz, 
 A. D. Dutoi, T. R. Furlani, S. R. Gwaltney, A. Heyden, S. Hirata, C.-P. Hsu, 
 G. Kedziora, R. Z. Khaliullin, P. Klunzinger, A. M. Lee, M. S. Lee, W. Liang, 
 I. Lotan, N. Nair, B. Peters, E. I. Proynov, P. A. Pieniazek, Y. M. Rhee, 
 J. Ritchie, E. Rosta, C. D. Sherrill, A. C. Simmonett, J. E. Subotnik, 
 H. L. Woodcock III, W. Zhang, A. T. Bell, A. K. Chakraborty, D. M. Chipman, 
 F. J. Keil, A. Warshel, W. J. Hehre, H. F. Schaefer III, J. Kong, 
 A. I. Krylov, P. M. W. Gill, M. Head-Gordon

 Additional authors for Version 3.1: 
 Z. Gan, Y. Zhao, N. E. Schultz, D. Truhlar, E. Epifanovsky, M. Oana

 Additional authors for Version 3.2: 
 R. Baer, B. R. Brooks, D. Casanova, J.-D. Chai, C.-L. Cheng, C. Cramer, 
 D. Crittenden, A. Ghysels, G. Hawkins, E. G. Hohenstein, C. Kelley, 
 W. Kurlancheek, D. Liotard, E. Livshits, P. Manohar, A. Marenich, 
 D. Neuhauser, R. Olson, M. A. Rohrdanz, K. S. Thanthiriwatte, A. J. W. Thom, 
 V. Vanovschi, C. F. Williams, Q. Wu, Z.-Q. You

 Additional authors for Version 4.0: 
 A. Aspuru-Guzik, Y. Bernard, C. Chang, J. Deng, A. Dreuw, M. Diedenhofen, 
 R. G. Edgar, D. Ghosh, W. A. Goddard III, M. Goldey, L. D. Jacobson, 
 M. Gordon, B. Kaduk, I. Kaliman, K. Khistyaev, R. King, A. Klamt, 
 D. Kosenkov, T. Kus, D. Lambrecht, A. Landau, A. W. Lange, K. Lawler, F. Liu, 
 J. Liu, R. Olivares-Amaya, S. P. Mao, J. Parkhill, N. Russ, M. Schmidt, 
 N. Shenvi, D. Small, Y. C. Su, E. Sundstrom, L. Vogt, O. Vydrov, M. Watson, 
 M. Wormit, X. Xu, S. Yeganeh, I. Y. Zhang, D. Zuev

 Additional authors for Version 4.1: 
 X. Feng, M. W. D. Hanson-Heine, P. Horn, H. Ji, A. Laurent, R. Peverati, 
 N. Mardirossian, N. Sergueev, S. Sharada, P. Zimmerman

 Q-Chem, Version 4.1, Q-Chem, Inc., Pittsburgh, PA (2013).

 Parts of Q-Chem use Armadillo 3.6.2 (Piazza del Duomo).
 http://arma.sourceforge.net/

 Intel X86 EM64T Linux Version 4.1.2

 Q-chem begins on Sat Apr 19 09:22:26 2014  

Host: 
0

     Scratch files written to ./qchem27545//
 Mar714 |home|leeping|src -1
 Using version located at /home/leeping/opt/qchem-4.2/bin/qchem


Total Memory Limit in MB = 2000
Mega-Array Size in MB = 62
Finally everything over in PARseQInput

--------------------------------------------------------------
User input:
--------------------------------------------------------------
$molecule
0 1
 H     3.651033455538    -0.156618464153    -1.430803067283
 C     2.942099410034    -0.764568845263    -0.876910435899
 H     3.399826186225    -1.096091666757     0.050012603085
 H     2.696555228693    -1.628431019111    -1.487130190777
 C     1.694004900577     0.038754118370    -0.664840341354
 O     1.050072308092     0.499255868784    -1.605999602181
 N     1.316392321089     0.227792320544     0.615711222197
 H     1.832371882520    -0.224874818832     1.346988157337
 C     0.151089827102     1.010549697318     0.966178706913
 H     0.118248164067     1.875593487450     0.306852503234
 H     0.246889741965     1.340058179353     1.994503164010
 C    -1.147642954119     0.228967818212     0.858500984291
 O    -1.851554864742     0.001713813299     1.835575789513
 N    -1.441569640308    -0.177669446051    -0.386740582321
 H    -0.783896590279     0.048966495238    -1.119106815578
 C    -2.624399908010    -0.960666908444    -0.646938239847
 H    -2.677147782698    -1.163094048156    -1.710726606511
 H    -3.515235327429    -0.419775432819    -0.339462840021
 H    -2.596509970536    -1.900984683961    -0.101869188673
$end

$rem
jobtype freq
exchange hf
basis 3-21g
symmetry off
sym_ignore true
$end

--------------------------------------------------------------
 ----------------------------------------------------------------
             Standard Nuclear Orientation (Angstroms)
    I     Atom           X                Y                Z
 ----------------------------------------------------------------
    1      H       3.6510334555    -0.1566184642    -1.4308030673
    2      C       2.9420994100    -0.7645688453    -0.8769104359
    3      H       3.3998261862    -1.0960916668     0.0500126031
    4      H       2.6965552287    -1.6284310191    -1.4871301908
    5      C       1.6940049006     0.0387541184    -0.6648403414
    6      O       1.0500723081     0.4992558688    -1.6059996022
    7      N       1.3163923211     0.2277923205     0.6157112222
    8      H       1.8323718825    -0.2248748188     1.3469881573
    9      C       0.1510898271     1.0105496973     0.9661787069
   10      H       0.1182481641     1.8755934874     0.3068525032
   11      H       0.2468897420     1.3400581794     1.9945031640
   12      C      -1.1476429541     0.2289678182     0.8585009843
   13      O      -1.8515548647     0.0017138133     1.8355757895
   14      N      -1.4415696403    -0.1776694461    -0.3867405823
   15      H      -0.7838965903     0.0489664952    -1.1191068156
   16      C      -2.6243999080    -0.9606669084    -0.6469382398
   17      H      -2.6771477827    -1.1630940482    -1.7107266065
   18      H      -3.5152353274    -0.4197754328    -0.3394628400
   19      H      -2.5965099705    -1.9009846840    -0.1018691887
 ----------------------------------------------------------------
 Nuclear Repulsion Energy =   469.1561484976 hartrees
 There are       35 alpha and       35 beta electrons
 Requested basis set is 3-21G
 There are 47 shells and 101 basis functions

Total QAlloc Memory Limit   2000 MB
Mega-Array Size        61 MB
MEM_STATIC part        62 MB

finished with qalloc call
 Job number = 2, Threshold = 1.00E-11
Integral type ranges set in mkLRange.C for JobNum: 2  <1-6|1-6>
Symmetry turned off temporarily
 Using the largest function pair in Schwarz integrals
Total number of integrals generated =           48467
Symmetry turned back on
 A cutoff of  1.0D-11 yielded    932 shell pairs
 There are      4679 function pairs
 Job number = 11, Threshold = 1.00E-11
Integral type ranges set in mkLRange.C for JobNum: 11  <1-6|7-7>
Total number of integrals generated =           88901
 Smallest overlap matrix eigenvalue = 1.10E-02
 Multipole matrices computed through 2nd order
 Guess from superposition of atomic densities
 Warning:  Energy on first SCF cycle will be non-variational
scfman initvdwdat 
 A restricted Hartree-Fock SCF calculation will be
 performed using Pulay DIIS extrapolation
 SCF converges when DIIS error is below 1.0E-08
Using Integral Screening
Finding J and K together
 ML is being used
 Job number = 22, Threshold = 1.00E-11
Integral type ranges set in mkLRange.C for JobNum: 22  <1-6|1-6>
Total number of integrals generated =         4572283
Fock build time:  0.15 s (CPU) 0.15 s (wall)
DIIS Errors:  Max 1.23E+00 RMS 1.05E-01

Current DIIS subspace size = 1
REM_GRID_RESTART_DIIS = 0

 ---------------------------------------
  Cycle       Energy         DIIS Error
 ---------------------------------------
    1    -454.4680076873      1.05E-01  00000
Ite = 2 IFIte = 1 Thresh = 1.00e-11
Finding J and K together
 Job number = 22, Threshold = 1.00E-11
Integral type ranges set in mkLRange.C for JobNum: 22  <1-6|1-6>
Total number of integrals generated =        10384158
Fock build time:  0.37 s (CPU) 0.37 s (wall)
DIIS Errors:  Max 1.65E-01 RMS 1.25E-02

Current DIIS subspace size = 2
REM_GRID_RESTART_DIIS = 0

    2    -451.0893192129      1.25E-02  00000
Ite = 3 IFIte = 2 Thresh = 1.00e-11
Using dP: JK
Finding J and K together
 ML is being used
 Job number = 22, Threshold = 1.00E-11
Integral type ranges set in mkLRange.C for JobNum: 22  <1-6|1-6>
Total number of integrals generated =         9504834
Fock build time:  0.40 s (CPU) 0.40 s (wall)
DIIS Errors:  Max 1.64E-01 RMS 9.90E-03

Current DIIS subspace size = 3
REM_GRID_RESTART_DIIS = 0

    3    -451.2015997217      9.90E-03  00000
Ite = 4 IFIte = 3 Thresh = 1.00e-11
Using dP: JK
Finding J and K together
 ML is being used
 Job number = 22, Threshold = 1.00E-11
Integral type ranges set in mkLRange.C for JobNum: 22  <1-6|1-6>
Total number of integrals generated =         9281350
Fock build time:  0.38 s (CPU) 0.38 s (wall)
DIIS Errors:  Max 1.11E-02 RMS 9.31E-04

Current DIIS subspace size = 4
REM_GRID_RESTART_DIIS = 0

    4    -451.2892940255      9.31E-04  00000
Ite = 5 IFIte = 4 Thresh = 1.00e-11
Using dP: JK
Finding J and K together
 ML is being used
 Job number = 22, Threshold = 1.00E-11
Integral type ranges set in mkLRange.C for JobNum: 22  <1-6|1-6>
Total number of integrals generated =         8914721
Fock build time:  0.36 s (CPU) 0.37 s (wall)
DIIS Errors:  Max 4.91E-03 RMS 3.90E-04

Current DIIS subspace size = 5
REM_GRID_RESTART_DIIS = 0

    5    -451.2916473166      3.90E-04  00000
Ite = 6 IFIte = 5 Thresh = 1.00e-11
Using dP: JK
Finding J and K together
 ML is being used
 Job number = 22, Threshold = 1.00E-11
Integral type ranges set in mkLRange.C for JobNum: 22  <1-6|1-6>
Total number of integrals generated =         8576113
Fock build time:  0.34 s (CPU) 0.34 s (wall)
DIIS Errors:  Max 2.15E-03 RMS 1.51E-04

Current DIIS subspace size = 6
REM_GRID_RESTART_DIIS = 0

    6    -451.2919719745      1.51E-04  00000
Ite = 7 IFIte = 6 Thresh = 1.00e-11
Using dP: JK
Finding J and K together
 ML is being used
 Job number = 22, Threshold = 1.00E-11
Integral type ranges set in mkLRange.C for JobNum: 22  <1-6|1-6>
Total number of integrals generated =         8490141
Fock build time:  0.34 s (CPU) 0.34 s (wall)
DIIS Errors:  Max 1.12E-03 RMS 6.77E-05

Current DIIS subspace size = 7
REM_GRID_RESTART_DIIS = 0

    7    -451.2920829836      6.77E-05  00000
Ite = 8 IFIte = 7 Thresh = 1.00e-11
Using dP: JK
Finding J and K together
 ML is being used
 Job number = 22, Threshold = 1.00E-11
Integral type ranges set in mkLRange.C for JobNum: 22  <1-6|1-6>
Total number of integrals generated =         8161824
Fock build time:  0.34 s (CPU) 0.34 s (wall)
DIIS Errors:  Max 5.49E-04 RMS 2.44E-05

Current DIIS subspace size = 8
REM_GRID_RESTART_DIIS = 0

    8    -451.2920977242      2.44E-05  00000
Ite = 9 IFIte = 8 Thresh = 1.00e-11
Using dP: JK
Finding J and K together
 ML is being used
 Job number = 22, Threshold = 1.00E-11
Integral type ranges set in mkLRange.C for JobNum: 22  <1-6|1-6>
Total number of integrals generated =         7744824
Fock build time:  0.32 s (CPU) 0.32 s (wall)
DIIS Errors:  Max 1.73E-04 RMS 8.33E-06

Current DIIS subspace size = 9
REM_GRID_RESTART_DIIS = 0

    9    -451.2920992199      8.33E-06  00000
Ite = 10 IFIte = 9 Thresh = 1.00e-11
Using dP: JK
Finding J and K together
 ML is being used
 Job number = 22, Threshold = 1.00E-11
Integral type ranges set in mkLRange.C for JobNum: 22  <1-6|1-6>
Total number of integrals generated =         7182175
Fock build time:  0.30 s (CPU) 0.30 s (wall)
DIIS Errors:  Max 3.10E-05 RMS 2.22E-06

Current DIIS subspace size = 10
REM_GRID_RESTART_DIIS = 0

   10    -451.2920993427      2.22E-06  00000
Ite = 11 IFIte = 10 Thresh = 1.00e-11
Using dP: JK
Finding J and K together
 ML is being used
 Job number = 22, Threshold = 1.00E-11
Integral type ranges set in mkLRange.C for JobNum: 22  <1-6|1-6>
Total number of integrals generated =         6729547
Fock build time:  0.29 s (CPU) 0.29 s (wall)
DIIS Errors:  Max 6.79E-06 RMS 5.25E-07

Current DIIS subspace size = 11
REM_GRID_RESTART_DIIS = 0

   11    -451.2920993543      5.25E-07  00000
Ite = 12 IFIte = 11 Thresh = 1.00e-11
Using dP: JK
Finding J and K together
 ML is being used
 Job number = 22, Threshold = 1.00E-11
Integral type ranges set in mkLRange.C for JobNum: 22  <1-6|1-6>
Total number of integrals generated =         6180391
Fock build time:  0.27 s (CPU) 0.27 s (wall)
DIIS Errors:  Max 2.19E-06 RMS 1.59E-07

Current DIIS subspace size = 12
REM_GRID_RESTART_DIIS = 0

   12    -451.2920993551      1.59E-07  00000
Ite = 13 IFIte = 12 Thresh = 1.00e-11
Using dP: JK
Finding J and K together
 ML is being used
 Job number = 22, Threshold = 1.00E-11
Integral type ranges set in mkLRange.C for JobNum: 22  <1-6|1-6>
Total number of integrals generated =         5557414
Fock build time:  0.24 s (CPU) 0.25 s (wall)
DIIS Errors:  Max 1.03E-06 RMS 5.89E-08
 Singularity in Pulay DIIS matrix

Current DIIS subspace size = 13
REM_GRID_RESTART_DIIS = 0

NextCycle: DoReset = 1
   13    -451.2920993554      5.89E-08  00000
Ite = 14 IFIte = 13 Thresh = 1.00e-11
Using dP: JK
Finding J and K together
 ML is being used
 Job number = 22, Threshold = 1.00E-11
Integral type ranges set in mkLRange.C for JobNum: 22  <1-6|1-6>
Total number of integrals generated =         5011839
Fock build time:  0.22 s (CPU) 0.22 s (wall)
DIIS Errors:  Max 6.18E-07 RMS 3.38E-08

Current DIIS subspace size = 2
REM_GRID_RESTART_DIIS = 0

   14    -451.2920993554      3.38E-08  00000
Ite = 15 IFIte = 14 Thresh = 1.00e-11
Using dP: JK
Finding J and K together
 ML is being used
 Job number = 22, Threshold = 1.00E-11
Integral type ranges set in mkLRange.C for JobNum: 22  <1-6|1-6>
Total number of integrals generated =         4897216
Fock build time:  0.22 s (CPU) 0.22 s (wall)
DIIS Errors:  Max 4.35E-07 RMS 1.81E-08

Current DIIS subspace size = 3
REM_GRID_RESTART_DIIS = 0

   15    -451.2920993553      1.81E-08  00000
Ite = 16 IFIte = 0 Thresh = 1.00e-11
Finding J and K together
 Job number = 22, Threshold = 1.00E-11
Integral type ranges set in mkLRange.C for JobNum: 22  <1-6|1-6>
Total number of integrals generated =        10384158
Fock build time:  0.39 s (CPU) 0.39 s (wall)
DIIS Errors:  Max 1.49E-07 RMS 5.86E-09

Current DIIS subspace size = 4
REM_GRID_RESTART_DIIS = 0

   16    -451.2920993557      5.86E-09  00000 Convergence criterion met
 ---------------------------------------
 SCF time:  CPU 5.02 s  wall 5.07 s
 SCF   energy in the final basis set = -451.2920993557
 Total energy in the final basis set = -451.2920993557
Symmetry turned off temporarily
 Analysis of SCF Wavefunction
 
 --------------------------------------------------------------
                    Orbital Energies (a.u.)
 --------------------------------------------------------------
 
 Alpha MOs
 -- Occupied --
-20.435 -20.404 -15.530 -15.482 -11.321 -11.282 -11.221 -11.194
-11.188  -1.410  -1.375  -1.255  -1.215  -1.051  -0.988  -0.927
 -0.812  -0.770  -0.727  -0.704  -0.675  -0.632  -0.629  -0.610
 -0.587  -0.578  -0.567  -0.557  -0.535  -0.527  -0.500  -0.436
 -0.425  -0.378  -0.362
 -- Virtual --
  0.175   0.208   0.236   0.288   0.300   0.314   0.321   0.333
  0.343   0.352   0.372   0.392   0.419   0.437   0.467   0.495
  0.564   0.627   0.648   0.683   0.917   0.920   0.941   0.959
  0.964   0.965   0.979   0.989   1.030   1.052   1.083   1.120
  1.129   1.200   1.232   1.248   1.301   1.308   1.317   1.333
  1.335   1.385   1.421   1.439   1.461   1.488   1.568   1.595
  1.633   1.751   1.868   1.924   1.940   1.976   1.985   2.027
  2.068   2.082   2.134   2.187   2.197   2.459   2.973   3.070
  3.701   3.758
 --------------------------------------------------------------
 
          Ground-State Mulliken Net Atomic Charges

     Atom                 Charge (a.u.)
  ----------------------------------------
      1 H                     0.264366
      2 C                    -0.677334
      3 H                     0.210669
      4 H                     0.261759
      5 C                     0.868363
      6 O                    -0.663862
      7 N                    -0.894754
      8 H                     0.368590
      9 C                    -0.268025
     10 H                     0.268488
     11 H                     0.264084
     12 C                     0.866843
     13 O                    -0.646286
     14 N                    -0.938322
     15 H                     0.403513
     16 C                    -0.326438
     17 H                     0.203516
     18 H                     0.221821
     19 H                     0.213008
  ----------------------------------------
  Sum of atomic charges =    -0.000000

 -----------------------------------------------------------------
                    Cartesian Multipole Moments
 -----------------------------------------------------------------
    Charge (ESU x 10^10)
                -0.0000
    Dipole Moment (Debye)
         X       4.1133      Y      -1.0878      Z      -0.4442
       Tot       4.2778
    Quadrupole Moments (Debye-Ang)
        XX     -49.1344     XY      -2.0147     YY     -51.9616
        XZ      10.3625     YZ       3.9111     ZZ     -62.1282
    Octopole Moments (Debye-Ang^2)
       XXX      21.2647    XXY      -8.1565    XYY      -3.0784
       YYY       6.2317    XXZ     -18.3917    XYZ      -0.4848
       YYZ       2.6220    XZZ      14.2769    YZZ      -2.3657
       ZZZ       1.1824
    Hexadecapole Moments (Debye-Ang^3)
      XXXX   -1117.8719   XXXY     -22.6118   XXYY    -225.0563
      XYYY     -23.4741   YYYY    -190.7601   XXXZ     123.8466
      XXYZ     -10.6302   XYYZ      32.1019   YYYZ     -42.1364
      XXZZ    -283.3668   XYZZ     -13.8139   YYZZ     -98.2873
      XZZZ     156.9324   YZZZ     -31.3459   ZZZZ    -451.7192
 -----------------------------------------------------------------
 Calculating MO derivatives via CPSCF
use symmetric Px in CPSCF
Wx will be set to be (0.5PFCCt+0.5CCtFP)x rather than (PFP)x
 Job number = 111, Threshold = 1.00E-11
Integral type ranges set in mkLRange.C for JobNum: 11  <1-6|7-7>
Total number of integrals generated =           88901
 Job number = 31, Threshold = 1.00E-11
Integral type ranges set in mkLRange.C for JobNum: 31  <1-6|1-6>
Total number of integrals generated =        10384158
 Job number = 130, Threshold = 1.00E-11
Integral type ranges set in mkLRange.C for JobNum: 30  <1-6|1-6>
 using symmetry in setfoz
 Job number = 31, Threshold = 1.00E-11
Integral type ranges set in mkLRange.C for JobNum: 31  <1-6|1-6>
 using symmetry in makeab
   1         3          57      0.154875    0.023215
 using symmetry in setfoz
 Job number = 31, Threshold = 1.00E-11
Integral type ranges set in mkLRange.C for JobNum: 31  <1-6|1-6>
 using symmetry in makeab
   2         3          57      0.028636    0.005634
 using symmetry in setfoz
 Job number = 31, Threshold = 1.00E-11
Integral type ranges set in mkLRange.C for JobNum: 31  <1-6|1-6>
 using symmetry in makeab
   3         3          57      0.004516    0.000884
 using symmetry in setfoz
 Job number = 31, Threshold = 1.00E-11
Integral type ranges set in mkLRange.C for JobNum: 31  <1-6|1-6>
 using symmetry in makeab
   4         3          57      0.000571    0.000102
 using symmetry in setfoz
 Job number = 31, Threshold = 1.00E-11
Integral type ranges set in mkLRange.C for JobNum: 31  <1-6|1-6>
 using symmetry in makeab
   5        45          15      0.000040    0.000009
 using symmetry in setfoz
 Job number = 31, Threshold = 1.00E-11
Integral type ranges set in mkLRange.C for JobNum: 31  <1-6|1-6>
 using symmetry in makeab
   6        60           0      0.000000    0.000000    Roots Converged
 Job number = 31, Threshold = 1.00E-11
Integral type ranges set in mkLRange.C for JobNum: 31  <1-6|1-6>
 CPSCF time:  CPU 39.19 s  wall 39.35 s
 Calculating analytic Hessian of the SCF energy
 Polarizability Matrix (a.u.)
            1           2           3
    1 -62.9568614   0.4913602   3.2730345
    2   0.4913602 -45.1275950  -2.7058985
    3   3.2730345  -2.7058985 -65.7478585
 Job number = 211, Threshold = 1.00E-11
Integral type ranges set in mkLRange.C for JobNum: 11  <1-6|7-7>
Total number of integrals generated =           88901
Finding J and K together
 Job number = 222, Threshold = 1.00E-11
Integral type ranges set in mkLRange.C for JobNum: 22  <1-6|1-6>
Total number of integrals generated =        10384158
 
 Direct stationary perturbation theory relativistic correction:
 
 rels  =       0.148422346412
 relv  =      -0.632961530775
 rel2e =       0.259672548326
 E_rel =      -0.224866636037
 
 Hessian of the SCF Energy
            1           2           3           4           5           6
    1   0.1942979   0.1110408  -0.1060808  -0.1784541  -0.1007523   0.0912286
    2   0.1110408   0.1574317  -0.0909321  -0.1028484  -0.1440807   0.0848314
    3  -0.1060808  -0.0909321   0.1372147   0.0936047   0.0836116  -0.1279360
    4  -0.1784541  -0.1028484   0.0936047   0.5597768   0.0273156   0.0295851
    5  -0.1007523  -0.1440807   0.0836116   0.0273156   0.5862245  -0.0205229
    6   0.0912286   0.0848314  -0.1279360   0.0295851  -0.0205229   0.6543691
    7   0.0134378  -0.0065600   0.0226986  -0.1096241   0.0364718  -0.0932614
    8   0.0103675  -0.0065339   0.0175551   0.0367329  -0.0852085   0.0681623
    9  -0.0086348   0.0044311  -0.0156637  -0.1004852   0.0729134  -0.2662162
   10  -0.0055597  -0.0210002  -0.0157340  -0.0715904  -0.0498727  -0.0412375
   11  -0.0048643  -0.0175208  -0.0123451  -0.0477391  -0.2351602  -0.1253154
   12   0.0040096   0.0170327   0.0117979  -0.0389430  -0.1270267  -0.1440896
   13  -0.0257628   0.0203120   0.0062830  -0.1749302   0.0417202   0.0081234
   14  -0.0233309   0.0160092   0.0037691   0.0408087  -0.1374429  -0.0048652
   15   0.0221359  -0.0146151  -0.0059767   0.0185246  -0.0106611  -0.1051696
   16   0.0043257  -0.0021400  -0.0018909  -0.0204426   0.0287324  -0.0370873
   17   0.0033761  -0.0012127   0.0001139   0.0272415   0.0033416   0.0233975
   18  -0.0024121   0.0003274   0.0001636  -0.0059140   0.0034583   0.0038913
   19  -0.0023912   0.0011693   0.0008553  -0.0079520   0.0168420   0.0401897
   20   0.0037598  -0.0034474  -0.0019093   0.0180886   0.0088987  -0.0251651
   21  -0.0009913  -0.0004595  -0.0000504   0.0048439  -0.0031083  -0.0104259
   22  -0.0002224   0.0004133   0.0002241  -0.0013817  -0.0026648   0.0015119
   23  -0.0001939   0.0002392   0.0006184  -0.0022620  -0.0032060  -0.0013898
   24  -0.0001410  -0.0000431   0.0006537  -0.0007781  -0.0004208   0.0007786
   25   0.0005032  -0.0004709  -0.0002572   0.0049112   0.0028122  -0.0008845
   26   0.0004214  -0.0007870  -0.0003031   0.0024226   0.0068775   0.0016818
   27   0.0008883  -0.0006076  -0.0001055  -0.0002781   0.0017301  -0.0042310
   28  -0.0000662   0.0000706   0.0001704  -0.0006565  -0.0005844  -0.0000390
   29   0.0000075  -0.0000097  -0.0001073   0.0003152   0.0002896  -0.0001530
   30   0.0000388  -0.0000062  -0.0000741   0.0002676   0.0006469  -0.0001396
   31  -0.0002946   0.0002330   0.0001128  -0.0003398  -0.0007596   0.0011009
   32   0.0002367  -0.0001584  -0.0000675   0.0003415   0.0005552  -0.0008026
   33   0.0000345  -0.0000503  -0.0000258   0.0001431  -0.0000677  -0.0002074
   34   0.0003370  -0.0002353  -0.0001605   0.0010821   0.0008827  -0.0008432
   35   0.0000138   0.0000519  -0.0000528  -0.0007637  -0.0014155  -0.0012191
   36  -0.0000314   0.0000800  -0.0001507  -0.0004824   0.0001841  -0.0010064
   37  -0.0000779   0.0000110   0.0000137  -0.0001681   0.0004872   0.0006283
   38  -0.0000357   0.0000051   0.0000118   0.0001205   0.0005196   0.0005831
   39   0.0000059  -0.0000119   0.0000677   0.0000176  -0.0005512   0.0000516
   40  -0.0000618  -0.0000001  -0.0000403  -0.0004308   0.0004676   0.0001441
   41   0.0000487   0.0000148   0.0000101  -0.0001762   0.0004894   0.0001167
   42  -0.0000815   0.0000089   0.0001119  -0.0000530  -0.0003771   0.0005327
   43  -0.0000280  -0.0000132   0.0001952   0.0001754  -0.0010251   0.0009228
   44  -0.0000932   0.0000065   0.0000120   0.0003714  -0.0006010   0.0006631
   45   0.0000343   0.0000103  -0.0000525  -0.0001363   0.0003819  -0.0003190
   46   0.0000342   0.0000007   0.0000112   0.0001231  -0.0001939  -0.0001124
   47   0.0000087  -0.0000237   0.0000237   0.0000870  -0.0001759  -0.0000287
   48   0.0000050   0.0000091   0.0000236   0.0001107  -0.0001825   0.0000938
   49  -0.0000066   0.0000046   0.0000047  -0.0000137  -0.0000060   0.0000415
   50  -0.0000087  -0.0000007   0.0000010  -0.0000050   0.0000045   0.0000423
   51  -0.0000060   0.0000020   0.0000011  -0.0000303   0.0000271   0.0000240
   52  -0.0000092   0.0000026  -0.0000053  -0.0000511   0.0000567   0.0000008
   53  -0.0000014   0.0000092  -0.0000036  -0.0000164   0.0000352  -0.0000096
   54   0.0000016  -0.0000005   0.0000008  -0.0000049  -0.0000168  -0.0000106
   55  -0.0000013   0.0000104  -0.0000047  -0.0000335   0.0000704  -0.0000117
   56  -0.0000006   0.0000076  -0.0000057  -0.0000350   0.0000549  -0.0000068
   57  -0.0000033  -0.0000066   0.0000004   0.0000081  -0.0000184   0.0000100
            7           8           9          10          11          12
    1   0.0134378   0.0103675  -0.0086348  -0.0055597  -0.0048643   0.0040096
    2  -0.0065600  -0.0065339   0.0044311  -0.0210002  -0.0175208   0.0170327
    3   0.0226986   0.0175551  -0.0156637  -0.0157340  -0.0123451   0.0117979
    4  -0.1096241   0.0367329  -0.1004852  -0.0715904  -0.0477391  -0.0389430
    5   0.0364718  -0.0852085   0.0729134  -0.0498727  -0.2351602  -0.1270267
    6  -0.0932614   0.0681623  -0.2662162  -0.0412375  -0.1253154  -0.1440896
    7   0.1165010  -0.0431459   0.1070479  -0.0041949   0.0024096  -0.0062446
    8  -0.0431459   0.0867577  -0.0782844  -0.0132523   0.0126357  -0.0268391
    9   0.1070479  -0.0782844   0.2907069  -0.0078450   0.0076137  -0.0171954
   10  -0.0041949  -0.0132523  -0.0078450   0.0784947   0.0533735   0.0407847
   11   0.0024096   0.0126357   0.0076137   0.0533735   0.2557538   0.1421290
   12  -0.0062446  -0.0268391  -0.0171954   0.0407847   0.1421290   0.1550978
   13  -0.0101072   0.0033615   0.0059488   0.0091036  -0.0067873  -0.0008655
   14   0.0053884  -0.0076943  -0.0041610   0.0352018  -0.0185075  -0.0064335
   15  -0.0350215   0.0224470   0.0045887   0.0244642  -0.0149987  -0.0064958
   16  -0.0066648   0.0061649   0.0019240  -0.0005883   0.0011660  -0.0007852
   17   0.0057088  -0.0008251  -0.0012173  -0.0042538   0.0034887   0.0016498
   18   0.0010864  -0.0006228   0.0020683  -0.0014150   0.0024051   0.0004108
   19   0.0013383  -0.0014517   0.0008968  -0.0049957   0.0023038   0.0023049
   20  -0.0013689   0.0001910  -0.0005417   0.0000704  -0.0007587  -0.0001756
   21   0.0016650  -0.0012117   0.0003061   0.0001560   0.0009488   0.0001211
   22  -0.0013610   0.0016397   0.0014250   0.0001707  -0.0000361  -0.0006491
   23   0.0013605   0.0006384  -0.0009126   0.0005511  -0.0001113  -0.0006207
   24   0.0020954  -0.0012051   0.0006183   0.0001456   0.0000778   0.0004556
   25   0.0001845  -0.0001503  -0.0002452  -0.0009214   0.0001162   0.0002438
   26  -0.0001126  -0.0000237   0.0002033  -0.0010219   0.0003459   0.0005060
   27   0.0001615  -0.0000700   0.0007045   0.0004624  -0.0003183  -0.0001043
   28   0.0001918  -0.0000795   0.0000489   0.0001392  -0.0000332  -0.0000325
   29  -0.0001750   0.0000897  -0.0000633  -0.0001234   0.0000193  -0.0000308
   30  -0.0001441   0.0000755   0.0000596  -0.0000602   0.0000090   0.0000689
   31   0.0000342   0.0000106  -0.0001132  -0.0000651   0.0000843   0.0000175
   32   0.0000024   0.0000099   0.0000420   0.0000257  -0.0000447  -0.0000238
   33   0.0000152  -0.0000423   0.0000218   0.0000507  -0.0000371  -0.0000060
   34  -0.0000792   0.0000582   0.0000855   0.0000076  -0.0001195  -0.0000622
   35  -0.0001851   0.0002572   0.0000281   0.0006283  -0.0002556  -0.0004961
   36  -0.0004715   0.0002842  -0.0001686   0.0003781  -0.0001886  -0.0002789
   37   0.0000142  -0.0000265  -0.0000780  -0.0001645   0.0001203   0.0000835
   38   0.0000173  -0.0000851  -0.0000472  -0.0002136   0.0000929   0.0001655
   39   0.0002015  -0.0001091   0.0001150  -0.0000029  -0.0000036   0.0000412
   40  -0.0000944   0.0000867  -0.0000830   0.0000492   0.0000582  -0.0000996
   41  -0.0000367  -0.0000259   0.0000083  -0.0004351   0.0001611   0.0002827
   42   0.0002756  -0.0001798   0.0000956  -0.0001567   0.0000974   0.0001566
   43   0.0004306  -0.0003104   0.0000821   0.0001864  -0.0000693   0.0001892
   44   0.0001926  -0.0001686  -0.0000405   0.0002852  -0.0001247  -0.0001062
   45  -0.0001567   0.0000977  -0.0000517   0.0000010  -0.0000581  -0.0000145
   46   0.0000167  -0.0000217   0.0000331  -0.0000101  -0.0000169   0.0000267
   47   0.0000611  -0.0000185   0.0000420   0.0000812  -0.0000355  -0.0000434
   48   0.0000361  -0.0000624  -0.0000044   0.0000199  -0.0000355   0.0000500
   49   0.0000143  -0.0000068   0.0000097  -0.0000328   0.0000180   0.0000126
   50   0.0000075  -0.0000068  -0.0000001   0.0000050   0.0000062   0.0000006
   51   0.0000071   0.0000034   0.0000052  -0.0000278   0.0000176   0.0000038
   52  -0.0000155   0.0000166  -0.0000115   0.0000050   0.0000052  -0.0000136
   53  -0.0000137   0.0000047  -0.0000037  -0.0000272   0.0000086   0.0000142
   54   0.0000026   0.0000028   0.0000053  -0.0000060   0.0000035  -0.0000038
   55  -0.0000224   0.0000064  -0.0000058  -0.0000336   0.0000107   0.0000228
   56  -0.0000223   0.0000062  -0.0000101  -0.0000219   0.0000068   0.0000153
   57   0.0000069  -0.0000011   0.0000045   0.0000225  -0.0000016  -0.0000152
           13          14          15          16          17          18
    1  -0.0257628  -0.0233309   0.0221359   0.0043257   0.0033761  -0.0024121
    2   0.0203120   0.0160092  -0.0146151  -0.0021400  -0.0012127   0.0003274
    3   0.0062830   0.0037691  -0.0059767  -0.0018909   0.0001139   0.0001636
    4  -0.1749302   0.0408087   0.0185246  -0.0204426   0.0272415  -0.0059140
    5   0.0417202  -0.1374429  -0.0106611   0.0287324   0.0033416   0.0034583
    6   0.0081234  -0.0048652  -0.1051696  -0.0370873   0.0233975   0.0038913
    7  -0.0101072   0.0053884  -0.0350215  -0.0066648   0.0057088   0.0010864
    8   0.0033615  -0.0076943   0.0224470   0.0061649  -0.0008251  -0.0006228
    9   0.0059488  -0.0041610   0.0045887   0.0019240  -0.0012173   0.0020683
   10   0.0091036   0.0352018   0.0244642  -0.0005883  -0.0042538  -0.0014150
   11  -0.0067873  -0.0185075  -0.0149987   0.0011660   0.0034887   0.0024051
   12  -0.0008655  -0.0064335  -0.0064958  -0.0007852   0.0016498   0.0004108
   13   0.6790423  -0.2567762   0.1246889  -0.2880253   0.1331366  -0.2357711
   14  -0.2567762   0.4594059  -0.1085703   0.1308601  -0.1920112   0.1679284
   15   0.1246889  -0.1085703   0.8862031  -0.2162034   0.1601348  -0.4267112
   16  -0.2880253   0.1308601  -0.2162034   0.2854210  -0.1592374   0.2679243
   17   0.1331366  -0.1920112   0.1601348  -0.1592374   0.1600859  -0.2030887
   18  -0.2357711   0.1679284  -0.4267112   0.2679243  -0.2030887   0.5405854
   19  -0.1721412   0.0606882   0.0575668   0.0326692  -0.0007400  -0.0311107
   20   0.0555076  -0.1195666  -0.0188191  -0.0022379   0.0271640   0.0273619
   21   0.0805981  -0.0383257  -0.3194792  -0.0250950   0.0192365  -0.1139266
   22   0.0101283  -0.0082774   0.0072016   0.0034984   0.0026083   0.0055980
   23  -0.0049955   0.0037920  -0.0083570   0.0028783   0.0046190  -0.0034529
   24  -0.0284283   0.0230022  -0.0246839   0.0040438  -0.0019390  -0.0050262
   25  -0.0114993   0.0077592   0.0171542  -0.0044168  -0.0010661  -0.0084997
   26   0.0064646  -0.0000649  -0.0201951   0.0029979  -0.0072851   0.0064263
   27   0.0395568  -0.0302547  -0.0119155   0.0002331  -0.0007861   0.0055160
   28   0.0001423   0.0020108  -0.0048525   0.0008881  -0.0019282   0.0013433
   29   0.0021120  -0.0018536   0.0063220  -0.0033271   0.0031031  -0.0014470
   30   0.0008473  -0.0015431   0.0022915  -0.0000088   0.0004049  -0.0018650
   31  -0.0034682   0.0050738  -0.0030291   0.0012614  -0.0005683   0.0003510
   32   0.0032922  -0.0038787   0.0038651  -0.0019631   0.0017629   0.0004738
   33  -0.0007262  -0.0007376   0.0008494   0.0007429  -0.0005518   0.0000834
   34  -0.0018108  -0.0015212   0.0123857  -0.0054731  -0.0010416  -0.0065830
   35   0.0047928   0.0005229   0.0167755  -0.0060639   0.0000776  -0.0072592
   36   0.0109584  -0.0012141   0.0170995  -0.0132191  -0.0001793  -0.0056534
   37   0.0008112  -0.0003182  -0.0060522   0.0001997  -0.0001760   0.0025377
   38  -0.0007894  -0.0001792  -0.0055179   0.0011111  -0.0003430   0.0022229
   39  -0.0037739   0.0009974  -0.0041154   0.0061683   0.0008270   0.0017375
   40   0.0040734  -0.0016694   0.0009633  -0.0114469  -0.0031447   0.0039412
   41  -0.0027058  -0.0019310  -0.0042861  -0.0025105   0.0033806   0.0041071
   42  -0.0031291   0.0010488  -0.0128191   0.0090797   0.0007639   0.0073199
   43  -0.0149216   0.0044161  -0.0202548   0.0089004  -0.0001453   0.0083916
   44   0.0022306   0.0030875  -0.0028118   0.0022294  -0.0053775   0.0008419
   45  -0.0028220  -0.0014330   0.0084770   0.0001902   0.0010460  -0.0085725
   46  -0.0016518   0.0001228   0.0008322   0.0013748   0.0002919  -0.0001399
   47  -0.0015910   0.0006975  -0.0005143   0.0024606   0.0000479  -0.0001023
   48  -0.0015855   0.0007754  -0.0014926   0.0040220   0.0001799  -0.0005137
   49  -0.0000938   0.0000611  -0.0010055   0.0005021   0.0000655   0.0004644
   50  -0.0000161   0.0000967  -0.0005392   0.0002266  -0.0001044   0.0002847
   51   0.0001896  -0.0000773  -0.0005811  -0.0001823  -0.0000017   0.0003543
   52   0.0007552  -0.0001658   0.0003629  -0.0011541  -0.0002201   0.0000884
   53   0.0003178  -0.0001990   0.0001121  -0.0005888  -0.0000250   0.0001297
   54  -0.0000100  -0.0000251  -0.0000065  -0.0000055   0.0000613   0.0000690
   55   0.0003560  -0.0003320   0.0001385  -0.0008290   0.0000929   0.0001193
   56   0.0004135  -0.0002829   0.0002292  -0.0007588   0.0001128   0.0000053
   57  -0.0000827   0.0001194  -0.0000626   0.0001492  -0.0000515   0.0000691
           19          20          21          22          23          24
    1  -0.0023912   0.0037598  -0.0009913  -0.0002224  -0.0001939  -0.0001410
    2   0.0011693  -0.0034474  -0.0004595   0.0004133   0.0002392  -0.0000431
    3   0.0008553  -0.0019093  -0.0000504   0.0002241   0.0006184   0.0006537
    4  -0.0079520   0.0180886   0.0048439  -0.0013817  -0.0022620  -0.0007781
    5   0.0168420   0.0088987  -0.0031083  -0.0026648  -0.0032060  -0.0004208
    6   0.0401897  -0.0251651  -0.0104259   0.0015119  -0.0013898   0.0007786
    7   0.0013383  -0.0013689   0.0016650  -0.0013610   0.0013605   0.0020954
    8  -0.0014517   0.0001910  -0.0012117   0.0016397   0.0006384  -0.0012051
    9   0.0008968  -0.0005417   0.0003061   0.0014250  -0.0009126   0.0006183
   10  -0.0049957   0.0000704   0.0001560   0.0001707   0.0005511   0.0001456
   11   0.0023038  -0.0007587   0.0009488  -0.0000361  -0.0001113   0.0000778
   12   0.0023049  -0.0001756   0.0001211  -0.0006491  -0.0006207   0.0004556
   13  -0.1721412   0.0555076   0.0805981   0.0101283  -0.0049955  -0.0284283
   14   0.0606882  -0.1195666  -0.0383257  -0.0082774   0.0037920   0.0230022
   15   0.0575668  -0.0188191  -0.3194792   0.0072016  -0.0083570  -0.0246839
   16   0.0326692  -0.0022379  -0.0250950   0.0034984   0.0028783   0.0040438
   17  -0.0007400   0.0271640   0.0192365   0.0026083   0.0046190  -0.0019390
   18  -0.0311107   0.0273619  -0.1139266   0.0055980  -0.0034529  -0.0050262
   19   0.5753518  -0.3290428   0.0322680  -0.1712501   0.1229578  -0.1413445
   20  -0.3290428   0.3537204  -0.0891047   0.1242016  -0.1208024   0.1303881
   21   0.0322680  -0.0891047   0.8746496  -0.1475210   0.1379660  -0.2978323
   22  -0.1712501   0.1242016  -0.1475210   0.1733374  -0.1288302   0.1510759
   23   0.1229578  -0.1208024   0.1379660  -0.1288302   0.1248759  -0.1381824
   24  -0.1413445   0.1303881  -0.2978323   0.1510759  -0.1381824   0.3119733
   25  -0.1985554   0.0833291   0.0240258  -0.0104162   0.0057673   0.0104586
   26   0.0889991  -0.1270336  -0.0103214   0.0091258  -0.0083558  -0.0084685
   27   0.0190823  -0.0152145  -0.1316830  -0.0210009   0.0159727   0.0127211
   28  -0.0128745   0.0355377  -0.0210686  -0.0018104   0.0043840   0.0027927
   29   0.0124713  -0.0191742   0.0108110   0.0001834  -0.0025400  -0.0021513
   30   0.0000232  -0.0111105   0.0071947   0.0015305  -0.0008942  -0.0001347
   31  -0.0049093   0.0147645   0.0422123   0.0011723  -0.0004670   0.0003419
   32   0.0025314  -0.0096564  -0.0271877  -0.0000037   0.0008229  -0.0002167
   33   0.0015940  -0.0001951  -0.0057072   0.0005474  -0.0001891   0.0009789
   34  -0.0293189  -0.0065456  -0.0057715  -0.0013627  -0.0013761  -0.0010125
   35   0.0349077   0.0089703  -0.0091071   0.0035478   0.0009130  -0.0018059
   36   0.0196530  -0.0001807  -0.0095876  -0.0005980  -0.0004494   0.0002809
   37  -0.0060748   0.0009048   0.0046703  -0.0002358   0.0000195   0.0004743
   38  -0.0077706  -0.0015087   0.0051553  -0.0010572  -0.0004366   0.0006819
   39   0.0006393   0.0011160   0.0029165   0.0007479   0.0001329  -0.0007448
   40   0.0019978  -0.0000613   0.0011991   0.0004541  -0.0000843   0.0001783
   41  -0.0016858   0.0046212   0.0029714  -0.0011099  -0.0007565   0.0002338
   42  -0.0039763   0.0021937   0.0074071  -0.0000813  -0.0000323   0.0000328
   43  -0.0024234   0.0021621   0.0090502  -0.0005139   0.0004026   0.0001997
   44  -0.0009494  -0.0014986   0.0012081   0.0003186   0.0002695   0.0000458
   45   0.0010373   0.0004284  -0.0049638   0.0001226  -0.0001398  -0.0000632
   46   0.0021668   0.0008807  -0.0006652  -0.0001688  -0.0000453  -0.0001540
   47  -0.0009922  -0.0003628   0.0003746   0.0000453   0.0001410  -0.0000387
   48   0.0007220   0.0010452   0.0007945  -0.0001385  -0.0001265  -0.0000331
   49  -0.0001943   0.0001871   0.0005704  -0.0000335  -0.0000275   0.0000169
   50  -0.0001463   0.0000893   0.0003296  -0.0000249  -0.0000133   0.0000224
   51  -0.0003414   0.0000349   0.0003845   0.0000202   0.0000152   0.0000101
   52   0.0000049  -0.0002046  -0.0001669   0.0000578   0.0000195   0.0000207
   53   0.0001479   0.0000695  -0.0000804  -0.0000199  -0.0000303  -0.0000068
   54   0.0002049   0.0000331  -0.0000972  -0.0000019   0.0000165  -0.0000013
   55  -0.0004480   0.0000670   0.0000204  -0.0000625  -0.0000589   0.0000145
   56  -0.0002395   0.0000850  -0.0000945  -0.0000597  -0.0000587   0.0000264
   57  -0.0002646  -0.0001849  -0.0000209  -0.0000145   0.0000252   0.0000163
           25          26          27          28          29          30
    1   0.0005032   0.0004214   0.0008883  -0.0000662   0.0000075   0.0000388
    2  -0.0004709  -0.0007870  -0.0006076   0.0000706  -0.0000097  -0.0000062
    3  -0.0002572  -0.0003031  -0.0001055   0.0001704  -0.0001073  -0.0000741
    4   0.0049112   0.0024226  -0.0002781  -0.0006565   0.0003152   0.0002676
    5   0.0028122   0.0068775   0.0017301  -0.0005844   0.0002896   0.0006469
    6  -0.0008845   0.0016818  -0.0042310  -0.0000390  -0.0001530  -0.0001396
    7   0.0001845  -0.0001126   0.0001615   0.0001918  -0.0001750  -0.0001441
    8  -0.0001503  -0.0000237  -0.0000700  -0.0000795   0.0000897   0.0000755
    9  -0.0002452   0.0002033   0.0007045   0.0000489  -0.0000633   0.0000596
   10  -0.0009214  -0.0010219   0.0004624   0.0001392  -0.0001234  -0.0000602
   11   0.0001162   0.0003459  -0.0003183  -0.0000332   0.0000193   0.0000090
   12   0.0002438   0.0005060  -0.0001043  -0.0000325  -0.0000308   0.0000689
   13  -0.0114993   0.0064646   0.0395568   0.0001423   0.0021120   0.0008473
   14   0.0077592  -0.0000649  -0.0302547   0.0020108  -0.0018536  -0.0015431
   15   0.0171542  -0.0201951  -0.0119155  -0.0048525   0.0063220   0.0022915
   16  -0.0044168   0.0029979   0.0002331   0.0008881  -0.0033271  -0.0000088
   17  -0.0010661  -0.0072851  -0.0007861  -0.0019282   0.0031031   0.0004049
   18  -0.0084997   0.0064263   0.0055160   0.0013433  -0.0014470  -0.0018650
   19  -0.1985554   0.0889991   0.0190823  -0.0128745   0.0124713   0.0000232
   20   0.0833291  -0.1270336  -0.0152145   0.0355377  -0.0191742  -0.0111105
   21   0.0240258  -0.0103214  -0.1316830  -0.0210686   0.0108110   0.0071947
   22  -0.0104162   0.0091258  -0.0210009  -0.0018104   0.0001834   0.0015305
   23   0.0057673  -0.0083558   0.0159727   0.0043840  -0.0025400  -0.0008942
   24   0.0104586  -0.0084685   0.0127211   0.0027927  -0.0021513  -0.0001347
   25   0.5143479  -0.0066226   0.0080715  -0.0586828   0.0007325  -0.0051532
   26  -0.0066226   0.5666908  -0.0072031  -0.0087229  -0.2301679   0.1356739
   27   0.0080715  -0.0072031   0.7320886  -0.0006656   0.1266294  -0.1656051
   28  -0.0586828  -0.0087229  -0.0006656   0.0763347  -0.0086215   0.0029843
   29   0.0007325  -0.2301679   0.1266294  -0.0086215   0.2516339  -0.1464361
   30  -0.0051532   0.1356739  -0.1656051   0.0029843  -0.1464361   0.1731659
   31  -0.0630843  -0.0093992  -0.0312460  -0.0006354  -0.0007464  -0.0008368
   32  -0.0088464  -0.0853599  -0.0694334   0.0036277   0.0138250   0.0286939
   33  -0.0298048  -0.0817356  -0.3175863  -0.0025519  -0.0072674  -0.0177774
   34  -0.1491522  -0.0353507  -0.0113365   0.0046794   0.0005365   0.0009502
   35  -0.0502736  -0.1310229  -0.0043909  -0.0276578  -0.0149096  -0.0055712
   36  -0.0237520  -0.0064733  -0.1068289   0.0254369   0.0171996   0.0026965
   37  -0.0177137  -0.0230522   0.0400356  -0.0071141  -0.0030317   0.0002583
   38  -0.0210299   0.0144868   0.0161262   0.0000839  -0.0011942   0.0009625
   39   0.0078274  -0.0003594  -0.0006492  -0.0005345  -0.0005857   0.0005552
   40  -0.0112637  -0.0221413  -0.0409380  -0.0003133  -0.0000638  -0.0005457
   41  -0.0118319  -0.0036134  -0.0296605   0.0027797   0.0023088  -0.0001787
   42   0.0022045  -0.0063485  -0.0060634  -0.0026217  -0.0017017  -0.0004814
   43   0.0022891  -0.0022470  -0.0037199   0.0001626   0.0000469  -0.0002200
   44   0.0005304   0.0005898  -0.0003664  -0.0013731  -0.0018523  -0.0007997
   45  -0.0021251  -0.0003986   0.0000535  -0.0003936  -0.0007143  -0.0000829
   46   0.0035584  -0.0014833   0.0025303  -0.0004361  -0.0005273   0.0000793
   47  -0.0010105   0.0056432  -0.0011443   0.0005526   0.0003440   0.0000855
   48   0.0006797  -0.0026549  -0.0059977   0.0000461  -0.0003496   0.0001644
   49   0.0002725  -0.0005543  -0.0015991  -0.0000006  -0.0000194  -0.0000050
   50   0.0000622  -0.0002095  -0.0010872   0.0000074  -0.0000009   0.0000047
   51   0.0000636  -0.0002557  -0.0005109  -0.0000419  -0.0000105   0.0000123
   52   0.0000707  -0.0004735  -0.0000809  -0.0000781   0.0000296   0.0000221
   53   0.0003985  -0.0007861   0.0004265  -0.0001743  -0.0000688  -0.0000018
   54   0.0002991  -0.0006740   0.0002068  -0.0001106  -0.0000194  -0.0000287
   55  -0.0004317   0.0007501  -0.0001569   0.0001297   0.0002007  -0.0000277
   56  -0.0002053   0.0000760  -0.0003477   0.0001206   0.0001577  -0.0000152
   57  -0.0003068   0.0008998  -0.0000097   0.0000897   0.0000756  -0.0000200
           31          32          33          34          35          36
    1  -0.0002946   0.0002367   0.0000345   0.0003370   0.0000138  -0.0000314
    2   0.0002330  -0.0001584  -0.0000503  -0.0002353   0.0000519   0.0000800
    3   0.0001128  -0.0000675  -0.0000258  -0.0001605  -0.0000528  -0.0001507
    4  -0.0003398   0.0003415   0.0001431   0.0010821  -0.0007637  -0.0004824
    5  -0.0007596   0.0005552  -0.0000677   0.0008827  -0.0014155   0.0001841
    6   0.0011009  -0.0008026  -0.0002074  -0.0008432  -0.0012191  -0.0010064
    7   0.0000342   0.0000024   0.0000152  -0.0000792  -0.0001851  -0.0004715
    8   0.0000106   0.0000099  -0.0000423   0.0000582   0.0002572   0.0002842
    9  -0.0001132   0.0000420   0.0000218   0.0000855   0.0000281  -0.0001686
   10  -0.0000651   0.0000257   0.0000507   0.0000076   0.0006283   0.0003781
   11   0.0000843  -0.0000447  -0.0000371  -0.0001195  -0.0002556  -0.0001886
   12   0.0000175  -0.0000238  -0.0000060  -0.0000622  -0.0004961  -0.0002789
   13  -0.0034682   0.0032922  -0.0007262  -0.0018108   0.0047928   0.0109584
   14   0.0050738  -0.0038787  -0.0007376  -0.0015212   0.0005229  -0.0012141
   15  -0.0030291   0.0038651   0.0008494   0.0123857   0.0167755   0.0170995
   16   0.0012614  -0.0019631   0.0007429  -0.0054731  -0.0060639  -0.0132191
   17  -0.0005683   0.0017629  -0.0005518  -0.0010416   0.0000776  -0.0001793
   18   0.0003510   0.0004738   0.0000834  -0.0065830  -0.0072592  -0.0056534
   19  -0.0049093   0.0025314   0.0015940  -0.0293189   0.0349077   0.0196530
   20   0.0147645  -0.0096564  -0.0001951  -0.0065456   0.0089703  -0.0001807
   21   0.0422123  -0.0271877  -0.0057072  -0.0057715  -0.0091071  -0.0095876
   22   0.0011723  -0.0000037   0.0005474  -0.0013627   0.0035478  -0.0005980
   23  -0.0004670   0.0008229  -0.0001891  -0.0013761   0.0009130  -0.0004494
   24   0.0003419  -0.0002167   0.0009789  -0.0010125  -0.0018059   0.0002809
   25  -0.0630843  -0.0088464  -0.0298048  -0.1491522  -0.0502736  -0.0237520
   26  -0.0093992  -0.0853599  -0.0817356  -0.0353507  -0.1310229  -0.0064733
   27  -0.0312460  -0.0694334  -0.3175863  -0.0113365  -0.0043909  -0.1068289
   28  -0.0006354   0.0036277  -0.0025519   0.0046794  -0.0276578   0.0254369
   29  -0.0007464   0.0138250  -0.0072674   0.0005365  -0.0149096   0.0171996
   30  -0.0008368   0.0286939  -0.0177774   0.0009502  -0.0055712   0.0026965
   31   0.0788835   0.0050022   0.0283973  -0.0037405  -0.0111603  -0.0409152
   32   0.0050022   0.0910108   0.0894242  -0.0022395  -0.0089060  -0.0276254
   33   0.0283973   0.0894242   0.3430012   0.0022151   0.0015405  -0.0081662
   34  -0.0037405  -0.0022395   0.0022151   0.6921734   0.2047496  -0.2024005
   35  -0.0111603  -0.0089060   0.0015405   0.2047496   0.4124616   0.0169149
   36  -0.0409152  -0.0276254  -0.0081662  -0.2024005   0.0169149   0.9569560
   37   0.0028796   0.0034068   0.0005744  -0.3350223  -0.0883744   0.2751669
   38   0.0032680   0.0019240   0.0009848  -0.0873802  -0.1280270   0.0864087
   39   0.0034561   0.0028776   0.0031784   0.2844298   0.0924352  -0.4821934
   40  -0.0070780  -0.0051669  -0.0015094  -0.1728461  -0.0571488  -0.0409106
   41  -0.0050004  -0.0014199  -0.0013485  -0.0617928  -0.1380801  -0.0737626
   42   0.0009945   0.0008321   0.0010086  -0.0536068  -0.0776466  -0.3289661
   43  -0.0005949   0.0000975   0.0000987   0.0174860   0.0086499  -0.0044983
   44   0.0001247  -0.0006147   0.0004005   0.0143477   0.0076148  -0.0082637
   45   0.0005972   0.0001965   0.0004108   0.0282436   0.0105961  -0.0293622
   46   0.0005765  -0.0000637   0.0004616  -0.0086150  -0.0142974  -0.0220538
   47  -0.0000706   0.0003540   0.0000434  -0.0177463  -0.0070049  -0.0150251
   48  -0.0012780  -0.0009621   0.0000037  -0.0428678  -0.0296399  -0.0119831
   49  -0.0004512  -0.0002616  -0.0000712  -0.0063626  -0.0029894   0.0033983
   50  -0.0002947  -0.0001897  -0.0000453  -0.0037715  -0.0018601   0.0022456
   51  -0.0001661  -0.0000697  -0.0000052  -0.0000102   0.0003010   0.0016847
   52  -0.0000743  -0.0000908  -0.0000878  -0.0023421   0.0016584   0.0083178
   53   0.0000182  -0.0000365  -0.0000287  -0.0002327   0.0011951   0.0020785
   54  -0.0000031  -0.0000337  -0.0000120  -0.0025808   0.0002458   0.0030320
   55  -0.0000719   0.0000716  -0.0001235   0.0003600  -0.0000341   0.0060233
   56  -0.0001128   0.0000002  -0.0000969  -0.0012218  -0.0005828   0.0079666
   57   0.0000061   0.0000174  -0.0000426  -0.0010743  -0.0016482   0.0025960
           37          38          39          40          41          42
    1  -0.0000779  -0.0000357   0.0000059  -0.0000618   0.0000487  -0.0000815
    2   0.0000110   0.0000051  -0.0000119  -0.0000001   0.0000148   0.0000089
    3   0.0000137   0.0000118   0.0000677  -0.0000403   0.0000101   0.0001119
    4  -0.0001681   0.0001205   0.0000176  -0.0004308  -0.0001762  -0.0000530
    5   0.0004872   0.0005196  -0.0005512   0.0004676   0.0004894  -0.0003771
    6   0.0006283   0.0005831   0.0000516   0.0001441   0.0001167   0.0005327
    7   0.0000142   0.0000173   0.0002015  -0.0000944  -0.0000367   0.0002756
    8  -0.0000265  -0.0000851  -0.0001091   0.0000867  -0.0000259  -0.0001798
    9  -0.0000780  -0.0000472   0.0001150  -0.0000830   0.0000083   0.0000956
   10  -0.0001645  -0.0002136  -0.0000029   0.0000492  -0.0004351  -0.0001567
   11   0.0001203   0.0000929  -0.0000036   0.0000582   0.0001611   0.0000974
   12   0.0000835   0.0001655   0.0000412  -0.0000996   0.0002827   0.0001566
   13   0.0008112  -0.0007894  -0.0037739   0.0040734  -0.0027058  -0.0031291
   14  -0.0003182  -0.0001792   0.0009974  -0.0016694  -0.0019310   0.0010488
   15  -0.0060522  -0.0055179  -0.0041154   0.0009633  -0.0042861  -0.0128191
   16   0.0001997   0.0011111   0.0061683  -0.0114469  -0.0025105   0.0090797
   17  -0.0001760  -0.0003430   0.0008270  -0.0031447   0.0033806   0.0007639
   18   0.0025377   0.0022229   0.0017375   0.0039412   0.0041071   0.0073199
   19  -0.0060748  -0.0077706   0.0006393   0.0019978  -0.0016858  -0.0039763
   20   0.0009048  -0.0015087   0.0011160  -0.0000613   0.0046212   0.0021937
   21   0.0046703   0.0051553   0.0029165   0.0011991   0.0029714   0.0074071
   22  -0.0002358  -0.0010572   0.0007479   0.0004541  -0.0011099  -0.0000813
   23   0.0000195  -0.0004366   0.0001329  -0.0000843  -0.0007565  -0.0000323
   24   0.0004743   0.0006819  -0.0007448   0.0001783   0.0002338   0.0000328
   25  -0.0177137  -0.0210299   0.0078274  -0.0112637  -0.0118319   0.0022045
   26  -0.0230522   0.0144868  -0.0003594  -0.0221413  -0.0036134  -0.0063485
   27   0.0400356   0.0161262  -0.0006492  -0.0409380  -0.0296605  -0.0060634
   28  -0.0071141   0.0000839  -0.0005345  -0.0003133   0.0027797  -0.0026217
   29  -0.0030317  -0.0011942  -0.0005857  -0.0000638   0.0023088  -0.0017017
   30   0.0002583   0.0009625   0.0005552  -0.0005457  -0.0001787  -0.0004814
   31   0.0028796   0.0032680   0.0034561  -0.0070780  -0.0050004   0.0009945
   32   0.0034068   0.0019240   0.0028776  -0.0051669  -0.0014199   0.0008321
   33   0.0005744   0.0009848   0.0031784  -0.0015094  -0.0013485   0.0010086
   34  -0.3350223  -0.0873802   0.2844298  -0.1728461  -0.0617928  -0.0536068
   35  -0.0883744  -0.1280270   0.0924352  -0.0571488  -0.1380801  -0.0776466
   36   0.2751669   0.0864087  -0.4821934  -0.0409106  -0.0737626  -0.3289661
   37   0.3317805   0.1051785  -0.3394319   0.0281450   0.0031580   0.0239380
   38   0.1051785   0.0823006  -0.0951379   0.0070661   0.0309031  -0.0116526
   39  -0.3394319  -0.0951379   0.5854136   0.0430596  -0.0007352  -0.1095978
   40   0.0281450   0.0070661   0.0430596   0.6654632   0.2981243  -0.1229696
   41   0.0031580   0.0309031  -0.0007352   0.2981243   0.3130695   0.0781163
   42   0.0239380  -0.0116526  -0.1095978  -0.1229696   0.0781163   0.8514299
   43   0.0015888  -0.0043884  -0.0083515  -0.2289066  -0.0816224   0.1815738
   44  -0.0032363   0.0037487  -0.0060560  -0.0819648  -0.0639451   0.0492946
   45  -0.0026674  -0.0035287  -0.0023155   0.1729239   0.0467296  -0.2862476
   46  -0.0055970   0.0037227   0.0099144  -0.2109112  -0.0840924  -0.0104265
   47   0.0015306  -0.0050917   0.0084619  -0.0851293  -0.1314009  -0.0183615
   48  -0.0027080   0.0011448   0.0057809  -0.0076792  -0.0147903  -0.1277277
   49   0.0019894   0.0008767   0.0005333  -0.0081173  -0.0115181  -0.0431524
   50   0.0005328   0.0010856   0.0001315  -0.0041552  -0.0083247  -0.0275716
   51  -0.0006659  -0.0004560   0.0001709   0.0007960  -0.0004116  -0.0051701
   52   0.0036820   0.0008842  -0.0026267  -0.0380990   0.0005275   0.0064119
   53  -0.0001079  -0.0003333  -0.0010457  -0.0301976   0.0127162   0.0069204
   54   0.0020355   0.0007723  -0.0003591  -0.0090360   0.0036496   0.0026705
   55   0.0010778   0.0003359  -0.0022796  -0.0106137  -0.0401200   0.0157769
   56   0.0029737   0.0021326  -0.0023837  -0.0148753  -0.0181671   0.0045955
   57   0.0011870   0.0011204  -0.0000533   0.0006059  -0.0110520   0.0063075
           43          44          45          46          47          48
    1  -0.0000280  -0.0000932   0.0000343   0.0000342   0.0000087   0.0000050
    2  -0.0000132   0.0000065   0.0000103   0.0000007  -0.0000237   0.0000091
    3   0.0001952   0.0000120  -0.0000525   0.0000112   0.0000237   0.0000236
    4   0.0001754   0.0003714  -0.0001363   0.0001231   0.0000870   0.0001107
    5  -0.0010251  -0.0006010   0.0003819  -0.0001939  -0.0001759  -0.0001825
    6   0.0009228   0.0006631  -0.0003190  -0.0001124  -0.0000287   0.0000938
    7   0.0004306   0.0001926  -0.0001567   0.0000167   0.0000611   0.0000361
    8  -0.0003104  -0.0001686   0.0000977  -0.0000217  -0.0000185  -0.0000624
    9   0.0000821  -0.0000405  -0.0000517   0.0000331   0.0000420  -0.0000044
   10   0.0001864   0.0002852   0.0000010  -0.0000101   0.0000812   0.0000199
   11  -0.0000693  -0.0001247  -0.0000581  -0.0000169  -0.0000355  -0.0000355
   12   0.0001892  -0.0001062  -0.0000145   0.0000267  -0.0000434   0.0000500
   13  -0.0149216   0.0022306  -0.0028220  -0.0016518  -0.0015910  -0.0015855
   14   0.0044161   0.0030875  -0.0014330   0.0001228   0.0006975   0.0007754
   15  -0.0202548  -0.0028118   0.0084770   0.0008322  -0.0005143  -0.0014926
   16   0.0089004   0.0022294   0.0001902   0.0013748   0.0024606   0.0040220
   17  -0.0001453  -0.0053775   0.0010460   0.0002919   0.0000479   0.0001799
   18   0.0083916   0.0008419  -0.0085725  -0.0001399  -0.0001023  -0.0005137
   19  -0.0024234  -0.0009494   0.0010373   0.0021668  -0.0009922   0.0007220
   20   0.0021621  -0.0014986   0.0004284   0.0008807  -0.0003628   0.0010452
   21   0.0090502   0.0012081  -0.0049638  -0.0006652   0.0003746   0.0007945
   22  -0.0005139   0.0003186   0.0001226  -0.0001688   0.0000453  -0.0001385
   23   0.0004026   0.0002695  -0.0001398  -0.0000453   0.0001410  -0.0001265
   24   0.0001997   0.0000458  -0.0000632  -0.0001540  -0.0000387  -0.0000331
   25   0.0022891   0.0005304  -0.0021251   0.0035584  -0.0010105   0.0006797
   26  -0.0022470   0.0005898  -0.0003986  -0.0014833   0.0056432  -0.0026549
   27  -0.0037199  -0.0003664   0.0000535   0.0025303  -0.0011443  -0.0059977
   28   0.0001626  -0.0013731  -0.0003936  -0.0004361   0.0005526   0.0000461
   29   0.0000469  -0.0018523  -0.0007143  -0.0005273   0.0003440  -0.0003496
   30  -0.0002200  -0.0007997  -0.0000829   0.0000793   0.0000855   0.0001644
   31  -0.0005949   0.0001247   0.0005972   0.0005765  -0.0000706  -0.0012780
   32   0.0000975  -0.0006147   0.0001965  -0.0000637   0.0003540  -0.0009621
   33   0.0000987   0.0004005   0.0004108   0.0004616   0.0000434   0.0000037
   34   0.0174860   0.0143477   0.0282436  -0.0086150  -0.0177463  -0.0428678
   35   0.0086499   0.0076148   0.0105961  -0.0142974  -0.0070049  -0.0296399
   36  -0.0044983  -0.0082637  -0.0293622  -0.0220538  -0.0150251  -0.0119831
   37   0.0015888  -0.0032363  -0.0026674  -0.0055970   0.0015306  -0.0027080
   38  -0.0043884   0.0037487  -0.0035287   0.0037227  -0.0050917   0.0011448
   39  -0.0083515  -0.0060560  -0.0023155   0.0099144   0.0084619   0.0057809
   40  -0.2289066  -0.0819648   0.1729239  -0.2109112  -0.0851293  -0.0076792
   41  -0.0816224  -0.0639451   0.0467296  -0.0840924  -0.1314009  -0.0147903
   42   0.1815738   0.0492946  -0.2862476  -0.0104265  -0.0183615  -0.1277277
   43   0.2299149   0.0766713  -0.1782716  -0.0124785  -0.0019963   0.0161136
   44   0.0766713   0.0655862  -0.0474278  -0.0081527  -0.0046876   0.0140293
   45  -0.1782716  -0.0474278   0.3079153  -0.0112177  -0.0027366   0.0147352
   46  -0.0124785  -0.0081527  -0.0112177   0.5838636  -0.0299268  -0.0149364
   47  -0.0019963  -0.0046876  -0.0027366  -0.0299268   0.6056705   0.0007704
   48   0.0161136   0.0140293   0.0147352  -0.0149364   0.0007704   0.6758434
   49   0.0015318   0.0003322  -0.0002928  -0.0617583   0.0008296  -0.0005230
   50   0.0003765   0.0012040  -0.0002219  -0.0010899  -0.0706557  -0.0427471
   51  -0.0001620  -0.0001228   0.0007194  -0.0118631  -0.0500248  -0.3305318
   52  -0.0027575   0.0019072  -0.0034372  -0.2292950   0.1129077   0.0600532
   53  -0.0021511  -0.0002316  -0.0016557   0.1192160  -0.1372878  -0.0409405
   54  -0.0005799  -0.0003177  -0.0001717   0.0646924  -0.0407112  -0.0856824
   55  -0.0000417  -0.0037721  -0.0016297  -0.0607922   0.0198988  -0.0100920
   56   0.0011457  -0.0030055  -0.0011719   0.0156765  -0.2561533   0.1145373
   57  -0.0007592  -0.0001827  -0.0000943  -0.0070122   0.1189293  -0.1335231
           49          50          51          52          53          54
    1  -0.0000066  -0.0000087  -0.0000060  -0.0000092  -0.0000014   0.0000016
    2   0.0000046  -0.0000007   0.0000020   0.0000026   0.0000092  -0.0000005
    3   0.0000047   0.0000010   0.0000011  -0.0000053  -0.0000036   0.0000008
    4  -0.0000137  -0.0000050  -0.0000303  -0.0000511  -0.0000164  -0.0000049
    5  -0.0000060   0.0000045   0.0000271   0.0000567   0.0000352  -0.0000168
    6   0.0000415   0.0000423   0.0000240   0.0000008  -0.0000096  -0.0000106
    7   0.0000143   0.0000075   0.0000071  -0.0000155  -0.0000137   0.0000026
    8  -0.0000068  -0.0000068   0.0000034   0.0000166   0.0000047   0.0000028
    9   0.0000097  -0.0000001   0.0000052  -0.0000115  -0.0000037   0.0000053
   10  -0.0000328   0.0000050  -0.0000278   0.0000050  -0.0000272  -0.0000060
   11   0.0000180   0.0000062   0.0000176   0.0000052   0.0000086   0.0000035
   12   0.0000126   0.0000006   0.0000038  -0.0000136   0.0000142  -0.0000038
   13  -0.0000938  -0.0000161   0.0001896   0.0007552   0.0003178  -0.0000100
   14   0.0000611   0.0000967  -0.0000773  -0.0001658  -0.0001990  -0.0000251
   15  -0.0010055  -0.0005392  -0.0005811   0.0003629   0.0001121  -0.0000065
   16   0.0005021   0.0002266  -0.0001823  -0.0011541  -0.0005888  -0.0000055
   17   0.0000655  -0.0001044  -0.0000017  -0.0002201  -0.0000250   0.0000613
   18   0.0004644   0.0002847   0.0003543   0.0000884   0.0001297   0.0000690
   19  -0.0001943  -0.0001463  -0.0003414   0.0000049   0.0001479   0.0002049
   20   0.0001871   0.0000893   0.0000349  -0.0002046   0.0000695   0.0000331
   21   0.0005704   0.0003296   0.0003845  -0.0001669  -0.0000804  -0.0000972
   22  -0.0000335  -0.0000249   0.0000202   0.0000578  -0.0000199  -0.0000019
   23  -0.0000275  -0.0000133   0.0000152   0.0000195  -0.0000303   0.0000165
   24   0.0000169   0.0000224   0.0000101   0.0000207  -0.0000068  -0.0000013
   25   0.0002725   0.0000622   0.0000636   0.0000707   0.0003985   0.0002991
   26  -0.0005543  -0.0002095  -0.0002557  -0.0004735  -0.0007861  -0.0006740
   27  -0.0015991  -0.0010872  -0.0005109  -0.0000809   0.0004265   0.0002068
   28  -0.0000006   0.0000074  -0.0000419  -0.0000781  -0.0001743  -0.0001106
   29  -0.0000194  -0.0000009  -0.0000105   0.0000296  -0.0000688  -0.0000194
   30  -0.0000050   0.0000047   0.0000123   0.0000221  -0.0000018  -0.0000287
   31  -0.0004512  -0.0002947  -0.0001661  -0.0000743   0.0000182  -0.0000031
   32  -0.0002616  -0.0001897  -0.0000697  -0.0000908  -0.0000365  -0.0000337
   33  -0.0000712  -0.0000453  -0.0000052  -0.0000878  -0.0000287  -0.0000120
   34  -0.0063626  -0.0037715  -0.0000102  -0.0023421  -0.0002327  -0.0025808
   35  -0.0029894  -0.0018601   0.0003010   0.0016584   0.0011951   0.0002458
   36   0.0033983   0.0022456   0.0016847   0.0083178   0.0020785   0.0030320
   37   0.0019894   0.0005328  -0.0006659   0.0036820  -0.0001079   0.0020355
   38   0.0008767   0.0010856  -0.0004560   0.0008842  -0.0003333   0.0007723
   39   0.0005333   0.0001315   0.0001709  -0.0026267  -0.0010457  -0.0003591
   40  -0.0081173  -0.0041552   0.0007960  -0.0380990  -0.0301976  -0.0090360
   41  -0.0115181  -0.0083247  -0.0004116   0.0005275   0.0127162   0.0036496
   42  -0.0431524  -0.0275716  -0.0051701   0.0064119   0.0069204   0.0026705
   43   0.0015318   0.0003765  -0.0001620  -0.0027575  -0.0021511  -0.0005799
   44   0.0003322   0.0012040  -0.0001228   0.0019072  -0.0002316  -0.0003177
   45  -0.0002928  -0.0002219   0.0007194  -0.0034372  -0.0016557  -0.0001717
   46  -0.0617583  -0.0010899  -0.0118631  -0.2292950   0.1192160   0.0646924
   47   0.0008296  -0.0706557  -0.0500248   0.1129077  -0.1372878  -0.0407112
   48  -0.0005230  -0.0427471  -0.3305318   0.0600532  -0.0409405  -0.0856824
   49   0.0691354   0.0088136   0.0121664   0.0040385   0.0041105   0.0321210
   50   0.0088136   0.0728486   0.0557594  -0.0018324  -0.0034323  -0.0206743
   51   0.0121664   0.0557594   0.3605309   0.0000819  -0.0009567  -0.0092178
   52   0.0040385  -0.0018324   0.0000819   0.2661408  -0.1184070  -0.0698144
   53   0.0041105  -0.0034323  -0.0009567  -0.1184070   0.1467641   0.0457052
   54   0.0321210  -0.0206743  -0.0092178  -0.0698144   0.0457052   0.0830511
   55  -0.0004192   0.0013132   0.0001723  -0.0008789   0.0277292  -0.0172043
   56   0.0000842   0.0094632  -0.0037740   0.0033790  -0.0183718   0.0119829
   57  -0.0026902   0.0340650  -0.0178843   0.0008845  -0.0106532   0.0065556
           55          56          57
    1  -0.0000013  -0.0000006  -0.0000033
    2   0.0000104   0.0000076  -0.0000066
    3  -0.0000047  -0.0000057   0.0000004
    4  -0.0000335  -0.0000350   0.0000081
    5   0.0000704   0.0000549  -0.0000184
    6  -0.0000117  -0.0000068   0.0000100
    7  -0.0000224  -0.0000223   0.0000069
    8   0.0000064   0.0000062  -0.0000011
    9  -0.0000058  -0.0000101   0.0000045
   10  -0.0000336  -0.0000219   0.0000225
   11   0.0000107   0.0000068  -0.0000016
   12   0.0000228   0.0000153  -0.0000152
   13   0.0003560   0.0004135  -0.0000827
   14  -0.0003320  -0.0002829   0.0001194
   15   0.0001385   0.0002292  -0.0000626
   16  -0.0008290  -0.0007588   0.0001492
   17   0.0000929   0.0001128  -0.0000515
   18   0.0001193   0.0000053   0.0000691
   19  -0.0004480  -0.0002395  -0.0002646
   20   0.0000670   0.0000850  -0.0001849
   21   0.0000204  -0.0000945  -0.0000209
   22  -0.0000625  -0.0000597  -0.0000145
   23  -0.0000589  -0.0000587   0.0000252
   24   0.0000145   0.0000264   0.0000163
   25  -0.0004317  -0.0002053  -0.0003068
   26   0.0007501   0.0000760   0.0008998
   27  -0.0001569  -0.0003477  -0.0000097
   28   0.0001297   0.0001206   0.0000897
   29   0.0002007   0.0001577   0.0000756
   30  -0.0000277  -0.0000152  -0.0000200
   31  -0.0000719  -0.0001128   0.0000061
   32   0.0000716   0.0000002   0.0000174
   33  -0.0001235  -0.0000969  -0.0000426
   34   0.0003600  -0.0012218  -0.0010743
   35  -0.0000341  -0.0005828  -0.0016482
   36   0.0060233   0.0079666   0.0025960
   37   0.0010778   0.0029737   0.0011870
   38   0.0003359   0.0021326   0.0011204
   39  -0.0022796  -0.0023837  -0.0000533
   40  -0.0106137  -0.0148753   0.0006059
   41  -0.0401200  -0.0181671  -0.0110520
   42   0.0157769   0.0045955   0.0063075
   43  -0.0000417   0.0011457  -0.0007592
   44  -0.0037721  -0.0030055  -0.0001827
   45  -0.0016297  -0.0011719  -0.0000943
   46  -0.0607922   0.0156765  -0.0070122
   47   0.0198988  -0.2561533   0.1189293
   48  -0.0100920   0.1145373  -0.1335231
   49  -0.0004192   0.0000842  -0.0026902
   50   0.0013132   0.0094632   0.0340650
   51   0.0001723  -0.0037740  -0.0178843
   52  -0.0008789   0.0033790   0.0008845
   53   0.0277292  -0.0183718  -0.0106532
   54  -0.0172043   0.0119829   0.0065556
   55   0.0727561  -0.0062401   0.0092479
   56  -0.0062401   0.2845191  -0.1314518
   57   0.0092479  -0.1314518   0.1361666
 Gradient time:  CPU 49.62 s  wall 49.83 s
 ------------------------------------------------------------------------------
                     drvman        : Timing summary (seconds)
 ------------------------------------------------------------------------------
     job step          cpu (% of tot)      sys (% of tot)     wall (% of tot)
 ------------------------------------------------------------------------------
  cpscf_lag         0.8729E+01 (17.6)   0.4000E-05 ( 2.9)   0.8814E+01 (17.7)
  iterzp            0.2551E+02 (51.4)   0.1220E-03 (87.8)   0.2556E+02 (51.3)
  make_fx           0.4932E+01 ( 9.9)   0.1000E-05 ( 0.7)   0.4948E+01 ( 9.9)
  scf_hess          0.1042E+02 (21.0)   0.1000E-04 ( 7.2)   0.1049E+02 (21.0)
 ------------------------------------------------------------------------------
   Grand Totals     0.4962E+02          0.1390E-03          0.4983E+02
 ------------------------------------------------------------------------------
 JobOver = TRUE
 **********************************************************************
 **                                                                  **
 **                       VIBRATIONAL ANALYSIS                       **
 **                       --------------------                       **
 **                                                                  **
 **        VIBRATIONAL FREQUENCIES (CM**-1) AND NORMAL MODES         **
 **     FORCE CONSTANTS (mDYN/ANGSTROM) AND REDUCED MASSES (AMU)     **
 **                  INFRARED INTENSITIES (KM/MOL)                   **
 **                                                                  **
 **********************************************************************
 

 Mode:                 1                      2                      3
 Frequency:        75.28                  91.02                 150.40
 Force Cnst:      0.0106                 0.0344                 0.0441
 Red. Mass:       3.1683                 7.0552                 3.3084
 IR Active:          YES                    YES                    YES
 IR Intens:        6.646                  9.318                 15.991
 Raman Active:       YES                    YES                    YES
               X      Y      Z        X      Y      Z        X      Y      Z
 H         -0.153 -0.407 -0.169   -0.050  0.057 -0.239   -0.016 -0.241 -0.215
 C         -0.200 -0.205 -0.011    0.018  0.051 -0.160    0.039 -0.041  0.069
 H         -0.166 -0.165 -0.013    0.115  0.061 -0.205    0.145  0.220  0.110
 H         -0.417 -0.248  0.134   -0.033  0.042 -0.129   -0.074 -0.227  0.371
 C         -0.041  0.036  0.009    0.030  0.036 -0.037    0.092  0.064 -0.006
 O          0.044  0.180  0.021    0.042  0.195  0.031    0.189  0.162 -0.021
 N         -0.035  0.034  0.011   -0.002 -0.181 -0.015   -0.014 -0.005 -0.025
 H         -0.094 -0.041  0.005   -0.017 -0.299 -0.077   -0.095 -0.059 -0.002
 C         -0.011  0.077  0.002    0.054 -0.152  0.096   -0.034 -0.010 -0.107
 H          0.008  0.062 -0.015    0.103 -0.078  0.187   -0.049 -0.078 -0.192
 H         -0.011  0.086 -0.002    0.085 -0.255  0.126   -0.058  0.088 -0.136
 C          0.010  0.045 -0.004   -0.035  0.004  0.031   -0.004 -0.058 -0.035
 O          0.034 -0.031 -0.006   -0.261  0.362 -0.049    0.043 -0.051 -0.000
 N          0.035  0.045 -0.012    0.129 -0.246  0.074   -0.079 -0.104 -0.008
 H          0.012  0.107 -0.012    0.160 -0.298  0.089   -0.130 -0.137 -0.060
 C          0.159 -0.144 -0.007    0.041 -0.102  0.038   -0.209  0.040  0.118
 H          0.194 -0.164 -0.005    0.074 -0.138  0.043   -0.329  0.003  0.132
 H          0.074 -0.279 -0.017    0.093  0.021 -0.028   -0.107  0.175  0.176
 H          0.303 -0.134  0.004   -0.105 -0.086  0.073   -0.288  0.063  0.159
 TransDip  -0.046 -0.068  0.002    0.035 -0.091 -0.003   -0.123 -0.037 -0.001

 Mode:                 4                      5                      6
 Frequency:       165.37                 185.19                 199.25
 Force Cnst:      0.0251                 0.0375                 0.0250
 Red. Mass:       1.5548                 1.8583                 1.0668
 IR Active:          YES                    YES                    YES
 IR Intens:        1.463                  1.754                  0.626
 Raman Active:       YES                    YES                    YES
               X      Y      Z        X      Y      Z        X      Y      Z
 H          0.223  0.219  0.478   -0.150 -0.035 -0.390    0.010 -0.020  0.027
 C          0.036  0.009  0.017    0.073  0.064 -0.002   -0.011 -0.015  0.007
 H         -0.237 -0.380  0.013    0.331  0.464  0.013   -0.030 -0.041  0.008
 H          0.187  0.276 -0.415    0.061 -0.201  0.371   -0.022  0.002 -0.011
 C          0.008 -0.025 -0.010    0.010 -0.030 -0.006    0.002  0.005  0.004
 O          0.068  0.052 -0.012    0.015 -0.025 -0.006   -0.003 -0.009  0.000
 N         -0.053 -0.085 -0.018   -0.051 -0.122 -0.009    0.013  0.031  0.003
 H         -0.103 -0.129 -0.010   -0.066 -0.146 -0.014    0.018  0.044  0.007
 C         -0.001  0.003 -0.046    0.012 -0.030  0.003   -0.004  0.009 -0.004
 H          0.048 -0.027 -0.085    0.080 -0.025  0.007   -0.021  0.005 -0.009
 H          0.018  0.039 -0.059    0.045 -0.045  0.005   -0.013  0.018 -0.006
 C         -0.023  0.044 -0.011   -0.038  0.061  0.003    0.006 -0.012 -0.001
 O          0.018  0.016  0.011   -0.006  0.013  0.015   -0.009  0.019 -0.005
 N         -0.069  0.060 -0.008   -0.081  0.143 -0.014    0.020 -0.039  0.004
 H         -0.083  0.046 -0.023   -0.065  0.132 -0.004    0.031 -0.060  0.008
 C         -0.002 -0.070  0.066    0.046 -0.058  0.013   -0.007  0.006 -0.008
 H         -0.061 -0.058  0.067   -0.014  0.044 -0.004   -0.315  0.505 -0.088
 H         -0.035 -0.174  0.145   -0.024 -0.260  0.154    0.072 -0.170  0.517
 H          0.144 -0.077  0.049    0.275 -0.114 -0.090    0.187 -0.258 -0.467
 TransDip  -0.023 -0.031  0.004    0.030 -0.030  0.002   -0.014  0.021 -0.000

 Mode:                 7                      8                      9
 Frequency:       246.48                 297.54                 335.37
 Force Cnst:      0.1781                 0.1708                 0.2845
 Red. Mass:       4.9764                 3.2739                 4.2925
 IR Active:          YES                    YES                    YES
 IR Intens:        4.474                  9.914                 12.300
 Raman Active:       YES                    YES                    YES
               X      Y      Z        X      Y      Z        X      Y      Z
 H         -0.111  0.070 -0.175    0.115 -0.126  0.102   -0.089  0.124  0.131
 C         -0.017  0.014 -0.114    0.007 -0.045  0.051   -0.057  0.078  0.121
 H          0.125 -0.058 -0.209   -0.105 -0.063  0.099   -0.088  0.234  0.191
 H         -0.105  0.066 -0.151   -0.011 -0.043  0.055    0.120 -0.017  0.185
 C          0.015 -0.019  0.129    0.030  0.050 -0.080   -0.138 -0.038 -0.025
 O         -0.127  0.005  0.236    0.067 -0.043 -0.144   -0.070  0.019 -0.050
 N          0.130  0.005  0.149    0.068  0.118 -0.065   -0.195 -0.149 -0.037
 H          0.150  0.069  0.173    0.157  0.124 -0.124   -0.260 -0.256 -0.059
 C          0.066 -0.009 -0.017    0.013 -0.067  0.184   -0.005  0.068  0.004
 H          0.182  0.009  0.004   -0.059  0.161  0.479    0.081  0.051 -0.021
 H         -0.107 -0.050  0.010    0.032 -0.381  0.284    0.055  0.055  0.002
 C          0.056  0.028 -0.195   -0.019 -0.012 -0.001    0.094  0.043 -0.046
 O          0.034  0.004 -0.214   -0.153 -0.059 -0.104    0.035 -0.086 -0.121
 N         -0.047  0.033 -0.169   -0.014  0.096 -0.028    0.235 -0.060 -0.028
 H         -0.093 -0.042 -0.231   -0.029  0.069 -0.049    0.182 -0.046 -0.068
 C         -0.075 -0.056  0.171    0.008 -0.008  0.158    0.094  0.125  0.162
 H         -0.305 -0.199  0.211   -0.114 -0.102  0.184   -0.118  0.089  0.181
 H         -0.023 -0.056  0.314    0.015 -0.049  0.244    0.238  0.289  0.300
 H          0.087  0.024  0.301    0.150  0.048  0.248    0.015  0.154  0.212
 TransDip   0.064 -0.020 -0.006    0.015  0.006  0.100    0.035  0.091  0.055

 Mode:                10                     11                     12
 Frequency:       415.60                 515.02                 645.20
 Force Cnst:      0.3303                 0.4775                 0.9066
 Red. Mass:       3.2462                 3.0555                 3.6965
 IR Active:          YES                    YES                    YES
 IR Intens:        7.874                 36.360                  1.611
 Raman Active:       YES                    YES                    YES
               X      Y      Z        X      Y      Z        X      Y      Z
 H          0.094 -0.068  0.269   -0.216  0.158 -0.195    0.114  0.013  0.040
 C         -0.045  0.020  0.187   -0.042  0.037 -0.104    0.156 -0.102 -0.025
 H         -0.238  0.144  0.327    0.180 -0.068 -0.252    0.130  0.069  0.053
 H          0.090 -0.077  0.271   -0.143  0.131 -0.196    0.407 -0.195  0.010
 C         -0.062  0.039 -0.060   -0.024 -0.017  0.087   -0.013 -0.119 -0.075
 O         -0.115  0.066 -0.015    0.166 -0.092 -0.068   -0.069  0.076  0.061
 N          0.032 -0.022 -0.048   -0.126  0.020  0.067    0.027  0.029 -0.050
 H          0.090 -0.051 -0.112   -0.195 -0.063  0.070   -0.163 -0.208 -0.060
 C          0.075 -0.102  0.073   -0.078  0.080  0.146    0.111  0.240  0.072
 H          0.127  0.111  0.345    0.041  0.306  0.434    0.263  0.384  0.261
 H          0.003 -0.427  0.182   -0.172 -0.293  0.275    0.196 -0.022  0.153
 C          0.062 -0.016 -0.084   -0.006  0.065 -0.069   -0.066  0.182  0.009
 O          0.184  0.123  0.028    0.140  0.033  0.023   -0.046 -0.113 -0.041
 N         -0.068 -0.038 -0.064    0.002 -0.068 -0.042   -0.025 -0.096  0.068
 H         -0.104 -0.027 -0.092   -0.004 -0.098 -0.059   -0.063 -0.096  0.041
 C         -0.070 -0.070 -0.079   -0.054 -0.033 -0.029   -0.088 -0.060 -0.044
 H         -0.037 -0.063 -0.084   -0.076 -0.023 -0.030    0.015  0.043 -0.072
 H         -0.094 -0.095 -0.106   -0.022  0.017 -0.022   -0.090 -0.030 -0.103
 H         -0.054 -0.079 -0.096   -0.094 -0.036 -0.036   -0.192 -0.110 -0.130
 TransDip  -0.033 -0.083 -0.006   -0.183  0.040  0.047   -0.004  0.023 -0.033

 Mode:                13                     14                     15
 Frequency:       684.14                 693.41                 721.27
 Force Cnst:      0.9221                 0.4919                 0.5265
 Red. Mass:       3.3437                 1.7365                 1.7176
 IR Active:          YES                    YES                    YES
 IR Intens:       19.468                 12.640                154.420
 Raman Active:       YES                    YES                    YES
               X      Y      Z        X      Y      Z        X      Y      Z
 H          0.390 -0.349 -0.059   -0.181  0.228  0.015    0.074 -0.140 -0.027
 C          0.203 -0.118 -0.050    0.014 -0.026 -0.006   -0.045  0.047  0.017
 H          0.067 -0.236 -0.020    0.119  0.111 -0.008   -0.116 -0.098 -0.000
 H         -0.032 -0.093 -0.000    0.313 -0.092 -0.028   -0.277  0.091  0.043
 C          0.131  0.086 -0.028   -0.110 -0.183 -0.006    0.047  0.093  0.015
 O         -0.114  0.010  0.099    0.051  0.085  0.013    0.007 -0.031 -0.020
 N         -0.139 -0.019 -0.083   -0.017  0.016 -0.015   -0.044 -0.134  0.001
 H          0.043  0.350  0.016    0.452  0.688  0.065    0.551  0.640  0.053
 C         -0.192 -0.029 -0.013   -0.041 -0.016 -0.007    0.082  0.050  0.003
 H         -0.209  0.149  0.224   -0.112  0.025  0.046    0.173  0.048 -0.010
 H         -0.191 -0.318  0.079   -0.045 -0.077  0.011    0.133  0.036  0.003
 C         -0.065  0.011 -0.046    0.014 -0.042  0.002   -0.013  0.079  0.006
 O          0.063  0.024  0.056    0.004  0.022  0.009   -0.014 -0.045 -0.026
 N          0.048  0.010 -0.038    0.008  0.008 -0.010   -0.014 -0.022  0.032
 H          0.149 -0.061  0.025   -0.042  0.098 -0.026    0.026 -0.137  0.035
 C          0.066  0.047  0.032    0.014  0.012  0.006   -0.033 -0.022 -0.015
 H         -0.031  0.000  0.047   -0.005 -0.003  0.010    0.022  0.026 -0.028
 H          0.106  0.088  0.082    0.016  0.010  0.019   -0.040 -0.014 -0.050
 H          0.066  0.073  0.080    0.031  0.020  0.018   -0.077 -0.045 -0.054
 TransDip   0.125  0.046 -0.048    0.050  0.093  0.043    0.236  0.308  0.091

 Mode:                16                     17                     18
 Frequency:       873.80                 919.36                 943.52
 Force Cnst:      2.0594                 1.4898                 0.6117
 Red. Mass:       4.5779                 2.9916                 1.1663
 IR Active:          YES                    YES                    YES
 IR Intens:       11.854                  1.085                185.555
 Raman Active:       YES                    YES                    YES
               X      Y      Z        X      Y      Z        X      Y      Z
 H          0.168 -0.139 -0.059   -0.184  0.108 -0.024    0.050 -0.050 -0.007
 C          0.121 -0.058 -0.032   -0.092  0.056  0.036    0.007  0.008 -0.001
 H          0.107 -0.128 -0.045    0.023 -0.003 -0.046   -0.026 -0.021  0.005
 H         -0.003 -0.035 -0.020   -0.153  0.120 -0.029   -0.053  0.011  0.017
 C         -0.011  0.060  0.004    0.066 -0.044  0.044    0.005  0.013 -0.002
 O         -0.035 -0.006 -0.016    0.047 -0.035  0.133    0.001 -0.015 -0.007
 N         -0.165 -0.023  0.022   -0.043  0.058 -0.165    0.016 -0.012  0.019
 H         -0.096  0.073  0.031   -0.216  0.016 -0.078    0.029  0.011  0.024
 C          0.013  0.132  0.115    0.011 -0.061 -0.153   -0.001 -0.010 -0.026
 H         -0.221 -0.022 -0.080   -0.042  0.266  0.284    0.093  0.042  0.034
 H          0.060  0.325  0.050    0.099 -0.544 -0.005   -0.041 -0.048 -0.009
 C          0.329 -0.238  0.087    0.064  0.014 -0.017   -0.044  0.028 -0.016
 O         -0.015  0.080 -0.153    0.002 -0.013 -0.103   -0.006  0.000  0.016
 N         -0.063  0.047  0.073   -0.065 -0.008  0.173    0.043 -0.073  0.011
 H         -0.371  0.366 -0.091   -0.147  0.016  0.119   -0.458  0.852 -0.151
 C         -0.082 -0.039 -0.015    0.044  0.036  0.045    0.005  0.010  0.001
 H          0.155  0.029 -0.045    0.344  0.205 -0.004   -0.024 -0.005  0.007
 H         -0.210 -0.181 -0.143   -0.075 -0.062 -0.130    0.008  0.010  0.036
 H         -0.028 -0.096 -0.121   -0.030 -0.065 -0.127    0.026  0.021  0.006
 TransDip   0.060  0.075  0.054    0.025 -0.012 -0.018   -0.266  0.327 -0.112

 Mode:                19                     20                     21
 Frequency:       961.56                1101.58                1126.67
 Force Cnst:      1.9992                 1.8040                 1.8457
 Red. Mass:       3.6698                 2.5231                 2.4678
 IR Active:          YES                    YES                    YES
 IR Intens:        3.820                 10.915                  8.250
 Raman Active:       YES                    YES                    YES
               X      Y      Z        X      Y      Z        X      Y      Z
 H          0.127 -0.061  0.030    0.207 -0.093  0.120   -0.222  0.087 -0.154
 C          0.064 -0.046 -0.034   -0.057  0.044 -0.076    0.104 -0.075  0.100
 H         -0.028  0.028  0.042   -0.408  0.256  0.174    0.556 -0.344 -0.217
 H          0.156 -0.110  0.019    0.133 -0.147  0.125   -0.137  0.167 -0.156
 C         -0.069  0.030 -0.034    0.047 -0.023 -0.054   -0.113  0.077  0.086
 O         -0.027  0.034 -0.122    0.012 -0.006 -0.017   -0.050  0.037 -0.102
 N          0.063 -0.008  0.174    0.074 -0.092  0.091   -0.023  0.013  0.053
 H          0.118 -0.031  0.128    0.010 -0.050  0.171    0.002 -0.025  0.009
 C         -0.135 -0.131  0.022   -0.037  0.180 -0.077    0.123  0.017 -0.112
 H          0.014 -0.246 -0.139    0.163  0.405  0.218    0.312  0.187  0.104
 H         -0.418  0.084 -0.025   -0.306 -0.260  0.096    0.003 -0.268 -0.009
 C          0.001  0.157 -0.077   -0.011 -0.173 -0.040   -0.040 -0.091 -0.035
 O          0.083 -0.017 -0.141   -0.032  0.020  0.033   -0.031 -0.001  0.038
 N         -0.072 -0.034  0.192   -0.080 -0.011  0.005   -0.063 -0.024 -0.006
 H         -0.135 -0.183  0.115   -0.003 -0.101  0.052   -0.011 -0.106  0.018
 C          0.065  0.047  0.063    0.086  0.063  0.029    0.076  0.052  0.020
[...]
 Red. Mass:       2.3020                 1.5204                 1.2887
 IR Active:          YES                    YES                    YES
 IR Intens:      184.857                 28.140                  7.208
 Raman Active:       YES                    YES                    YES
               X      Y      Z        X      Y      Z        X      Y      Z
 H         -0.253  0.159  0.015   -0.022  0.020 -0.000   -0.023  0.024 -0.001
 C         -0.036  0.013  0.068   -0.002 -0.001  0.003   -0.003 -0.001  0.003
 H          0.042  0.071 -0.114   -0.005  0.000  0.007   -0.009  0.015 -0.003
 H         -0.028 -0.043 -0.132    0.002  0.001  0.010   -0.014  0.003  0.005
 C          0.181 -0.093 -0.175    0.018 -0.011  0.014    0.025 -0.014 -0.008
 O         -0.047  0.031 -0.015   -0.018  0.018 -0.036   -0.009  0.007 -0.008
 N         -0.082  0.045  0.054    0.024 -0.025  0.031    0.004  0.027  0.008
 H         -0.335  0.236  0.363   -0.182  0.080  0.252   -0.042  0.054  0.058
 C          0.092 -0.032  0.049    0.003  0.012  0.022   -0.143 -0.014  0.010
 H          0.345 -0.125 -0.099   -0.400  0.054  0.090    0.811 -0.031 -0.043
 H         -0.492  0.138  0.068    0.710  0.081 -0.063    0.545 -0.022 -0.053
 C         -0.041 -0.039 -0.056   -0.125 -0.068 -0.086    0.034 -0.022  0.024
 O          0.003  0.003  0.006    0.056  0.027 -0.048   -0.002  0.005 -0.003
 N          0.025  0.019  0.028    0.013  0.009  0.051   -0.010 -0.001 -0.011
 H          0.128  0.075  0.139    0.222  0.173  0.282   -0.026 -0.031 -0.038
 C         -0.023 -0.013  0.011   -0.024 -0.014  0.010    0.006  0.005 -0.002
 H          0.058  0.035  0.002    0.068  0.042  0.004   -0.021 -0.021  0.002
 H         -0.020  0.003 -0.012    0.004  0.023  0.018   -0.004 -0.011 -0.001
 H         -0.004 -0.020 -0.009    0.019 -0.005  0.020   -0.009  0.000 -0.008
 TransDip   0.255 -0.148 -0.320   -0.147 -0.083  0.021    0.054 -0.011  0.066

 Mode:                31                     32                     33
 Frequency:      1560.18                1617.04                1619.30
 Force Cnst:      1.7442                 1.8111                 1.8115
 Red. Mass:       1.2162                 1.1756                 1.1725
 IR Active:          YES                    YES                    YES
 IR Intens:       34.972                  7.308                 94.686
 Raman Active:       YES                    YES                    YES
               X      Y      Z        X      Y      Z        X      Y      Z
 H          0.430 -0.291  0.129   -0.058  0.051 -0.021   -0.226  0.170 -0.080
 C         -0.115  0.070  0.019    0.000  0.001 -0.012   -0.000  0.006 -0.048
 H          0.330 -0.449 -0.193   -0.008 -0.099  0.086   -0.038 -0.383  0.343
 H          0.568 -0.077 -0.136    0.069  0.032  0.115    0.276  0.119  0.427
 C          0.010 -0.005 -0.011    0.001 -0.002  0.014    0.009 -0.012  0.054
 O         -0.001  0.001 -0.001   -0.006  0.004 -0.007   -0.019  0.016 -0.031
 N         -0.005  0.002  0.008    0.012 -0.005 -0.016    0.032 -0.012 -0.049
 H         -0.002  0.002  0.006   -0.080  0.045  0.080   -0.199  0.116  0.195
 C         -0.002 -0.002  0.000   -0.005  0.013  0.014    0.004  0.029  0.029
 H          0.017  0.004  0.008   -0.008 -0.088 -0.126    0.005 -0.178 -0.258
 H          0.014  0.012 -0.004    0.014 -0.121  0.044   -0.087 -0.244  0.105
 C         -0.001 -0.002 -0.001    0.022  0.012 -0.025   -0.001  0.005  0.007
 O          0.001  0.000 -0.000   -0.016 -0.007  0.024    0.000 -0.000 -0.003
 N          0.001  0.001  0.001   -0.002 -0.001  0.006    0.001 -0.001  0.001
 H         -0.000 -0.001 -0.000   -0.147 -0.091 -0.142    0.007  0.027  0.009
 C         -0.001 -0.000 -0.000   -0.081 -0.052 -0.046    0.029  0.017  0.012
 H          0.002  0.001 -0.000    0.491  0.277 -0.099   -0.168 -0.096  0.030
 H          0.001  0.002  0.001    0.287  0.301  0.293   -0.091 -0.103 -0.088
 H          0.002  0.000  0.001    0.376  0.141  0.300   -0.130 -0.042 -0.094
 TransDip   0.157 -0.100 -0.034   -0.074 -0.030 -0.034   -0.043 -0.042  0.306

 Mode:                34                     35                     36
 Frequency:      1636.37                1655.99                1666.32
 Force Cnst:      1.6862                 1.6861                 1.7078
 Red. Mass:       1.0688                 1.0436                 1.0439
 IR Active:          YES                    YES                    YES
 IR Intens:       13.379                 11.342                  5.393
 Raman Active:       YES                    YES                    YES
               X      Y      Z        X      Y      Z        X      Y      Z
 H         -0.187  0.118 -0.057    0.389  0.593  0.089    0.003  0.011  0.001
 C          0.004  0.003 -0.026   -0.027 -0.043 -0.005   -0.000 -0.001 -0.000
 H         -0.025 -0.239  0.222    0.271 -0.038 -0.415    0.004 -0.004 -0.004
 H          0.174  0.069  0.258   -0.220  0.136  0.412   -0.001  0.003  0.010
 C          0.002 -0.001 -0.011   -0.015 -0.018 -0.001    0.000 -0.001 -0.001
 O         -0.002  0.001  0.003    0.002  0.000  0.001   -0.000  0.000  0.000
 N         -0.002 -0.005 -0.004    0.004  0.002 -0.003   -0.001  0.000  0.001
 H          0.037 -0.020 -0.041   -0.022 -0.009  0.007    0.003 -0.003 -0.004
 C         -0.005 -0.061 -0.024    0.001 -0.001  0.001   -0.001  0.001 -0.000
 H          0.079  0.312  0.500    0.000  0.008  0.014    0.006  0.002  0.001
 H         -0.079  0.577 -0.170   -0.014  0.020 -0.003    0.004  0.000 -0.001
 C          0.010 -0.002  0.003   -0.000 -0.001 -0.001    0.001 -0.002 -0.001
 O         -0.002 -0.001  0.002   -0.000  0.000  0.000   -0.001  0.001  0.000
 N         -0.007 -0.003 -0.008    0.000  0.001  0.001    0.007 -0.010  0.001
 H          0.028 -0.004  0.021   -0.001 -0.003 -0.002    0.001 -0.009 -0.004
 C         -0.007 -0.004 -0.001    0.000  0.001 -0.000    0.028 -0.048  0.003
 H          0.051  0.025 -0.007    0.001 -0.012  0.001   -0.362  0.623 -0.053
 H          0.024  0.029  0.023    0.001 -0.002  0.005   -0.201 -0.096 -0.428
 H          0.037  0.009  0.021   -0.006 -0.003 -0.008    0.139  0.189  0.432
 TransDip   0.059  0.088  0.051    0.046  0.096  0.016   -0.039  0.062 -0.012

 Mode:                37                     38                     39
 Frequency:      1679.28                1691.37                1727.75
 Force Cnst:      2.5466                 1.8214                 2.7102
 Red. Mass:       1.5327                 1.0806                 1.5410
 IR Active:          YES                    YES                    YES
 IR Intens:      159.940                  5.399                312.134
 Raman Active:       YES                    YES                    YES
               X      Y      Z        X      Y      Z        X      Y      Z
 H         -0.191  0.167 -0.044    0.017 -0.010  0.004    0.031 -0.014  0.007
 C         -0.006  0.003 -0.010    0.000 -0.000  0.000   -0.002  0.000 -0.002
 H         -0.004 -0.191  0.150    0.001  0.013 -0.012   -0.001  0.016 -0.014
 H          0.128  0.061  0.224   -0.010 -0.004 -0.013   -0.013 -0.001 -0.010
 C          0.063 -0.029 -0.100   -0.005  0.002  0.009    0.006 -0.008  0.025
 O         -0.004 -0.000  0.016    0.000  0.000 -0.002   -0.005  0.006 -0.013
 N         -0.086  0.043  0.128    0.007 -0.003 -0.011    0.002  0.001 -0.008
 H          0.502 -0.290 -0.494   -0.039  0.022  0.038    0.001  0.002 -0.007
 C          0.004  0.023 -0.033   -0.002 -0.001  0.001   -0.006 -0.002 -0.007
 H         -0.135 -0.047 -0.134    0.018 -0.006 -0.004    0.026 -0.024 -0.035
 H          0.223 -0.280  0.017   -0.039 -0.003  0.006   -0.097 -0.066  0.020
 C         -0.012 -0.004  0.008    0.012  0.010  0.027    0.051  0.041  0.102
 O          0.008  0.004 -0.009    0.002  0.000 -0.012    0.006  0.001 -0.026
 N         -0.001 -0.002 -0.004   -0.029 -0.018 -0.011   -0.089 -0.064 -0.120
 H          0.037  0.027  0.046    0.097  0.066  0.126    0.557  0.376  0.561
 C         -0.007 -0.003  0.007   -0.028 -0.013  0.051   -0.005 -0.001  0.016
 H          0.009 -0.003  0.004   -0.208 -0.106  0.051    0.287  0.172 -0.008
 H          0.020  0.061 -0.029    0.144  0.522 -0.401   -0.018 -0.088  0.148
 H          0.062 -0.018 -0.031    0.558 -0.165 -0.329   -0.092  0.047  0.141
 TransDip   0.212 -0.102 -0.330    0.036  0.037  0.054    0.303  0.123  0.462

 Mode:                40                     41                     42
 Frequency:      1854.09                1897.22                3207.87
 Force Cnst:     12.0891                12.6761                 6.2589
 Red. Mass:       5.9687                 5.9772                 1.0323
 IR Active:          YES                    YES                    YES
 IR Intens:      137.958                294.423                 34.761
 Raman Active:       YES                    YES                    YES
               X      Y      Z        X      Y      Z        X      Y      Z
 H          0.252 -0.162  0.052    0.047 -0.031  0.009    0.001  0.000 -0.003
 C         -0.031  0.025 -0.032   -0.006  0.005 -0.007   -0.000  0.000 -0.000
 H         -0.099  0.191 -0.054   -0.022  0.037 -0.007    0.004  0.002  0.003
 H         -0.210  0.028 -0.071   -0.041  0.006 -0.011   -0.001 -0.006  0.002
 C          0.292 -0.239  0.392    0.061 -0.046  0.084    0.000 -0.000  0.000
 O         -0.158  0.130 -0.220   -0.036  0.026 -0.043   -0.000  0.000 -0.000
 N         -0.059  0.040 -0.024   -0.003  0.007 -0.015   -0.000 -0.000  0.000
 H          0.320 -0.181 -0.423    0.026 -0.018 -0.053   -0.000  0.000 -0.000
 C          0.007 -0.020  0.002    0.033  0.011 -0.040   -0.000  0.000 -0.001
 H         -0.096  0.055  0.125    0.159  0.073  0.072    0.000 -0.002  0.002
 H         -0.029  0.157 -0.046   -0.297 -0.045  0.036   -0.001  0.000  0.002
 C          0.073  0.039 -0.090   -0.298 -0.134  0.436   -0.000  0.000  0.003
 O         -0.044 -0.021  0.055    0.177  0.080 -0.235    0.001  0.000 -0.001
 N         -0.006 -0.004  0.024    0.052  0.026 -0.045   -0.001 -0.000 -0.002
 H         -0.093  0.003 -0.085   -0.346 -0.233 -0.460   -0.003 -0.002  0.005
 C          0.006  0.002 -0.005   -0.018 -0.011 -0.011   -0.038 -0.027  0.003
 H         -0.065 -0.037  0.002    0.138  0.078 -0.030    0.017  0.046  0.444
 H          0.007  0.014 -0.028    0.058  0.066  0.096    0.475 -0.311 -0.191
 H          0.012 -0.006 -0.028    0.078  0.032  0.099   -0.028  0.595 -0.291
 TransDip   0.269 -0.136  0.225   -0.212 -0.089  0.499   -0.151 -0.099 -0.054

 Mode:                43                     44                     45
 Frequency:      3213.17                3257.88                3262.62
 Force Cnst:      6.3142                 6.9006                 6.6524
 Red. Mass:       1.0380                 1.1035                 1.0607
 IR Active:          YES                    YES                    YES
 IR Intens:        2.881                 36.059                  9.875
 Raman Active:       YES                    YES                    YES
               X      Y      Z        X      Y      Z        X      Y      Z
 H         -0.067 -0.008  0.340   -0.000  0.000  0.000   -0.000 -0.000  0.004
 C          0.038 -0.032  0.016    0.000  0.001  0.000    0.000  0.000 -0.000
 H         -0.466 -0.270 -0.316   -0.004 -0.002 -0.003   -0.004 -0.002 -0.003
 H          0.091  0.658 -0.213   -0.001 -0.004  0.002   -0.000 -0.003  0.001
 C         -0.001  0.000  0.001   -0.000 -0.000 -0.000    0.000 -0.000  0.001
 O         -0.000  0.000 -0.000    0.000  0.000  0.000   -0.000  0.000 -0.000
 N         -0.000  0.000 -0.000    0.000  0.000  0.000    0.001  0.000 -0.000
 H          0.002 -0.002 -0.000   -0.000 -0.000 -0.000   -0.000 -0.004  0.002
 C          0.000  0.000 -0.000    0.000  0.003 -0.000   -0.003 -0.069  0.002
 H         -0.000 -0.001  0.001    0.001 -0.035  0.025   -0.017  0.715 -0.503
 H          0.000 -0.001 -0.002   -0.002 -0.005 -0.022    0.043  0.108  0.464
 C         -0.000 -0.000  0.000    0.000 -0.000 -0.000    0.001  0.000  0.000
 O          0.000  0.000 -0.000   -0.000  0.000 -0.000    0.000 -0.000  0.000
 N         -0.000 -0.000  0.000   -0.001  0.001 -0.000   -0.000  0.000 -0.000
 H          0.000  0.000 -0.001    0.004 -0.007  0.001   -0.000 -0.003  0.000
 C         -0.000 -0.000  0.000    0.049 -0.079  0.010    0.002 -0.004  0.000
 H          0.000  0.000  0.004    0.009 -0.026 -0.057    0.000 -0.001 -0.003
 H          0.004 -0.003 -0.002   -0.577  0.351  0.248   -0.026  0.016  0.011
 H         -0.000  0.005 -0.002   -0.008  0.608 -0.313   -0.000  0.030 -0.015
 TransDip   0.035 -0.030  0.030    0.104 -0.160  0.027    0.018 -0.088 -0.045

 Mode:                46                     47                     48
 Frequency:      3268.42                3289.42                3328.20
 Force Cnst:      6.9219                 7.0280                 7.1667
 Red. Mass:       1.0998                 1.1024                 1.0981
 IR Active:          YES                    YES                    YES
 IR Intens:        7.183                 24.260                  3.326
 Raman Active:       YES                    YES                    YES
               X      Y      Z        X      Y      Z        X      Y      Z
 H         -0.003 -0.019 -0.045    0.000 -0.000 -0.002   -0.201 -0.005  0.917
 C         -0.051 -0.075 -0.010   -0.000 -0.000  0.000    0.004  0.008 -0.090
 H          0.552  0.292  0.384    0.001  0.000  0.000    0.194  0.111  0.115
 H          0.068  0.632 -0.220    0.000  0.001 -0.000   -0.028 -0.208  0.051
 C         -0.000 -0.001 -0.000   -0.000  0.000 -0.000   -0.001  0.001 -0.003
 O         -0.000 -0.000 -0.000    0.000 -0.000  0.000    0.000 -0.000  0.001
 N          0.000  0.000  0.000   -0.000  0.000  0.000   -0.000 -0.000  0.001
 H         -0.001 -0.003 -0.000    0.000 -0.000  0.000   -0.002  0.001  0.001
 C          0.000 -0.000  0.000    0.000 -0.000  0.000   -0.000  0.000  0.000
 H         -0.000  0.005 -0.003   -0.000  0.001 -0.001    0.000 -0.001  0.001
 H          0.000  0.000  0.002   -0.000 -0.000 -0.001   -0.000 -0.001 -0.004
 C          0.000 -0.000 -0.000    0.001  0.000 -0.000   -0.000 -0.000 -0.000
 O         -0.000  0.000  0.000   -0.000 -0.000  0.000    0.000  0.000  0.000
 N          0.000  0.000 -0.000    0.000  0.000  0.001    0.000  0.000 -0.000
 H         -0.000 -0.000  0.000    0.004  0.001 -0.013   -0.000 -0.000  0.001
 C          0.000 -0.001  0.000    0.017 -0.002 -0.091    0.000 -0.000 -0.000
 H          0.000 -0.000 -0.002    0.043  0.099  0.887    0.000  0.000  0.001
 H         -0.004  0.002  0.002   -0.273  0.179  0.089   -0.000  0.000  0.000
 H         -0.000  0.005 -0.003    0.017 -0.260  0.104    0.000 -0.000  0.000
 TransDip  -0.051 -0.068 -0.010    0.023 -0.005 -0.156    0.014 -0.002 -0.057

 Mode:                49                     50                     51
 Frequency:      3333.19                3764.05                3830.74
 Force Cnst:      7.2326                 9.0216                 9.3253
 Red. Mass:       1.1049                 1.0807                 1.0786
 IR Active:          YES                    YES                    YES
 IR Intens:        5.767                187.416                 56.610
 Raman Active:       YES                    YES                    YES
               X      Y      Z        X      Y      Z        X      Y      Z
 H         -0.001 -0.000  0.003    0.001 -0.000 -0.000    0.000 -0.000  0.000
 C          0.000 -0.000 -0.000    0.000  0.000 -0.000    0.000 -0.000 -0.000
 H          0.001  0.000  0.000   -0.001 -0.000 -0.001    0.001 -0.000  0.001
 H          0.000  0.000 -0.000   -0.001  0.001 -0.000    0.000 -0.001  0.001
 C         -0.001  0.000 -0.000    0.001 -0.001  0.003   -0.002  0.001  0.001
 O          0.000 -0.000  0.000   -0.001  0.000 -0.002    0.000 -0.000  0.001
 N          0.000 -0.000  0.002    0.001 -0.001  0.000   -0.036  0.035 -0.054
 H         -0.001  0.006 -0.014   -0.012  0.012 -0.019    0.494 -0.484  0.717
 C         -0.008  0.013 -0.093   -0.001  0.000  0.000    0.001 -0.000 -0.001
 H          0.006 -0.387  0.259    0.000 -0.001  0.001    0.004 -0.009  0.004
 H          0.083  0.215  0.849    0.000 -0.000  0.000   -0.001  0.003  0.010
 C          0.001  0.001 -0.003    0.000  0.000 -0.000    0.000 -0.000 -0.000
 O         -0.000 -0.000  0.001   -0.000 -0.000  0.002    0.000  0.000  0.000
 N         -0.000 -0.000  0.001    0.045  0.021 -0.056    0.001  0.001 -0.001
 H          0.002  0.002  0.001   -0.600 -0.278  0.746   -0.016 -0.007  0.019
 C          0.000  0.000 -0.000   -0.001 -0.001 -0.000   -0.000 -0.000 -0.000
 H         -0.000 -0.000 -0.000    0.002  0.002  0.007    0.000  0.000  0.000
 H         -0.002  0.001  0.000   -0.011  0.000  0.001   -0.000 -0.000 -0.000
 H         -0.000 -0.003  0.001   -0.005 -0.009  0.002   -0.000 -0.000  0.000
 TransDip  -0.012 -0.013 -0.075   -0.352 -0.076  0.250    0.078 -0.090  0.209

 STANDARD THERMODYNAMIC QUANTITIES AT   298.15 K  AND     1.00 ATM

   This Molecule has  0 Imaginary Frequencies
   Zero point vibrational energy:      107.219 kcal/mol

   Atom    1 Element H  Has Mass    1.00783
   Atom    2 Element C  Has Mass   12.00000
   Atom    3 Element H  Has Mass    1.00783
   Atom    4 Element H  Has Mass    1.00783
   Atom    5 Element C  Has Mass   12.00000
   Atom    6 Element O  Has Mass   15.99491
   Atom    7 Element N  Has Mass   14.00307
   Atom    8 Element H  Has Mass    1.00783
   Atom    9 Element C  Has Mass   12.00000
   Atom   10 Element H  Has Mass    1.00783
   Atom   11 Element H  Has Mass    1.00783
   Atom   12 Element C  Has Mass   12.00000
   Atom   13 Element O  Has Mass   15.99491
   Atom   14 Element N  Has Mass   14.00307
   Atom   15 Element H  Has Mass    1.00783
   Atom   16 Element C  Has Mass   12.00000
   Atom   17 Element H  Has Mass    1.00783
   Atom   18 Element H  Has Mass    1.00783
   Atom   19 Element H  Has Mass    1.00783
   Molecular Mass:   130.074260 amu
   Principal axes and moments of inertia in atomic units:
                             1           2           3
    Eigenvalues --      627.85562  1803.84638  2155.64328
          X               0.95955     0.25938    -0.10949
          Y               0.04071     0.25696     0.96556
          Z              -0.27858     0.93096    -0.23601
   Rotational Symmetry Number is   1
   The Molecule is an Asymmetric Top
   Translational Enthalpy:        0.889 kcal/mol
   Rotational Enthalpy:           0.889 kcal/mol
   Vibrational Enthalpy:        111.717 kcal/mol
   gas constant (RT):             0.592 kcal/mol
   Translational Entropy:        40.502  cal/mol.K
   Rotational Entropy:           29.280  cal/mol.K
   Vibrational Entropy:          30.547  cal/mol.K

   Total Enthalpy:              114.087 kcal/mol
   Total Entropy:               100.329  cal/mol.K
Archival summary:
1\1\leeping\FREQ\HF\3-21G\22510\leeping\SatApr1909:25:412014SatApr1909:25:412014\0\\#,FREQ,HF,3-21G,\\0,1\N\H,1,0.99638\C,1,1.35084,2,120.243\O,3,1.22616,1,121.909,2,-175.416,0\C,1,1.46511,2,118.08,3,-179.36,0\H,5,1.07732,1,108.976,2,-23.7696,0\H,5,1.08067,1,108.332,2,-143.53,0\C,3,1.51327,1,115.047,2,4.46558,0\H,8,1.07829,3,108.75,1,179.383,0\H,8,1.0837,3,110.33,1,59.0964,0\H,8,1.08436,3,110.134,1,-60.6996,0\C,5,1.52853,1,112.408,2,95.3373,0\O,12,1.22056,5,122.096,1,-114.566,0\N,12,1.34407,5,114.163,1,65.8834,0\H,14,1.0004,12,119.089,5,-0.325166,0\C,14,1.4599,12,120.298,5,-179.449,0\H,16,1.08048,14,108.555,12,-179.793,0\H,16,1.08245,14,110.827,12,-59.8562,0\H,16,1.08284,14,110.983,12,60.173,0\\HF=-451.294069\\@

 Total job time:  50.62s(wall), 50.51s(cpu) 
 Sat Apr 19 09:25:41 2014

        *************************************************************
        *                                                           *
        *  Thank you very much for using Q-Chem.  Have a nice day.  *
        *                                                           *
        *************************************************************


*** MISSION COMPLETED -- STARFLEET OUT ***

