    -----------------------------------------------------------------------
          PSI4: An Open-Source Ab Initio Electronic Structure Package
                              PSI 4.0.0-beta5 Driver

    J. M. Turney, A. C. Simmonett, R. M. Parrish, E. G. Hohenstein,
    F. A. Evangelista, J. T. Fermann, B. J. Mintz, L. A. Burns, J. J. Wilke,
    M. L. Abrams, N. J. Russ, M. L. Leininger, C. L. Janssen, E. T. Seidl,
    W. D. Allen, H. F. Schaefer, R. A. King, E. F. Valeev, C. D. Sherrill,
    and T. D. Crawford, WIREs Comput. Mol. Sci., (2011) (doi: 10.1002/wcms.93)

                         Additional Contributions by
    A. E. DePrince, M. Saitow, U. Bozkaya, A. Yu. Sokolov
    -----------------------------------------------------------------------

    Process ID:  29621
    PSI4DATADIR: /home/leeping/opt/psi-4.0b5/share/psi

    Using LocalCommunicator (Number of processes = 1)

    Memory level set to 256.000 MB

  ==> Input File <==

--------------------------------------------------------------------------
memory 12 gb

molecule GLY {
0 1
H       3.2297461235    -0.7215266627    -1.9281348956
C       3.0002455764    -0.7271526473    -0.8745680938
H       3.8174763359    -0.2794098632    -0.3213351753
H       2.8757741384    -1.7503653460    -0.5378390457
C       1.7235924669     0.0538661681    -0.6506449746
O       1.0891661046     0.5736077911    -1.5621440257
N       1.3235417470     0.1389168077     0.6367958046
H       1.8195842153    -0.3493579590     1.3497497140
C       0.1533722579     0.9288935152     1.0281766084
H       0.1250356257     1.8199257604     0.4173561309
H       0.2428832586     1.1960043342     2.0680091051
C      -1.1541868434     0.1548083807     0.8624013083
O      -1.8505942449    -0.1536978583     1.8161371041
N      -1.4616684609    -0.1391440224    -0.4125780138
H      -0.8405343191     0.1496669469    -1.1416699436
C      -2.6764978121    -0.8866112352    -0.7237107391
H      -2.7378376732    -1.0124958785    -1.7950766983
H      -3.5540815452    -0.3564994838    -0.3765364480
H      -2.6643905636    -1.8605522826    -0.2505925018
     units angstrom
     no_reorient
     symmetry c1
}

set globals {
    basis         3-21g
    guess         sad
    print         1
}

frequencies('scf')

--------------------------------------------------------------------------

  Memory set to  12.000 GiB by Python script.

-------------------------------------------------------------

  Using finite-differences of gradients to determine vibrational frequencies and 
  normal modes.  Resulting frequencies are only valid at stationary points.
	Generating geometries for use with 3-point formula.
	Displacement size will be 5.00e-03.
	Number of atoms is 19.
	Number of irreps is 1.
	Number of SALCS is 51.
	Index of salcs per irrep:
	 1 :  0  1  2  3  4  5  6  7  8  9  10  11  12  13  14  15  16  17  18  19  20  21  22  23  24  25  26  27  28  29  30  31  32  33  34  35  36  37  38  39  40  41  42  43  44  45  46  47  48  49  50 
	Number of SALC's per irrep:
		 Irrep 1: 51
	Number of geometries (including reference) is 103.
	Number of displacements per irrep:
	  Irrep 1: 102

-------------------------------------------------------------

  //>>>>>>>>>>>>>>>>>>>>>>>>>>>>>>>>>>>//
  //   Loading displacement 1 of 103   //
  //<<<<<<<<<<<<<<<<<<<<<<<<<<<<<<<<<<<//

  No DF_BASIS_SCF auxiliary basis selected, defaulting to cc-pvdz-ri


*** tstart() called on sherlock-ln02.stanford.edu
*** at Sat Apr 19 10:08:08 2014


         ---------------------------------------------------------
                                   SCF
            by Justin Turney, Rob Parrish, and Andy Simmonett
                              RHF Reference
                       16 Threads,  12000 MiB Core
         ---------------------------------------------------------

  ==> Geometry <==

    Molecular point group: c1
    Full point group: C1

    Geometry (in Angstrom), charge = 0, multiplicity = 1:

       Center              X                  Y                   Z       
    ------------   -----------------  -----------------  -----------------
           H          3.221157852117    -0.704678694665    -1.930922100944
           C          2.994303962908    -0.710302654548    -0.877357267829
           H          3.811528111973    -0.262554981633    -0.324118541072
           H          2.869833787517    -1.733514914685    -0.540626420354
           C          1.717645730885     0.070711581924    -0.653447382886
           O          1.083225129993     0.590448054993    -1.564953380589
           N          1.317583531482     0.155764207752     0.633989698036
           H          1.813621826826    -0.332506531570     1.346949268995
           C          0.147407435304     0.945737241367     1.025358163170
           H          0.119072449816     1.836767654287     0.414534936446
           H          0.236908354841     1.212851347927     2.065190683173
           C         -1.160147074565     0.171646306629     0.859573732100
           O         -1.856561464454    -0.136860093023     1.813304373089
           N         -1.467616468078    -0.122310934135    -0.415407422664
           H         -0.846477200041     0.166500520081    -1.144494793190
           C         -2.682440079529    -0.869783977390    -0.726548551906
           H         -2.743770162943    -0.995671881946    -1.797914687722
           H         -3.560028977304    -0.339674830478    -0.379383339142
           H         -2.670332948791    -1.843723645725    -0.253427472708

  Running in c1 symmetry.

  Nuclear repulsion =  467.227466270345360

  Charge       = 0
  Multiplicity = 1
  Electrons    = 70
  Nalpha       = 35
  Nbeta        = 35

  ==> Algorithm <==

  SCF Algorithm Type is DF.
  DIIS enabled.
  MOM disabled.
  Fractional occupation disabled.
  Guess Type is SAD.
  Energy threshold   = 1.00e-08
  Density threshold  = 1.00e-08
  Integral threshold = 0.00e+00

  ==> Primary Basis <==

  Basis Set: 3-21G
    Number of shells: 65
    Number of basis function: 101
    Number of Cartesian functions: 101
    Spherical Harmonics?: false
    Max angular momentum: 1

  ==> Pre-Iterations <==

   -------------------------------------------------------
    Irrep   Nso     Nmo     Nalpha   Nbeta   Ndocc  Nsocc
   -------------------------------------------------------
     A        101     101       0       0       0       0
   -------------------------------------------------------
    Total     101     101      35      35      35       0
   -------------------------------------------------------

 OEINTS: Wrapper to libmints.
   by Justin Turney

   Calculation information:
      Number of atoms:                  19
      Number of AO shells:              65
      Number of SO shells:              65
      Number of primitives:            111
      Number of atomic orbitals:       101
      Number of basis functions:       101

      Number of irreps:                  1
      Number of functions per irrep: [ 101 ]

      Overlap, kinetic, potential, dipole, and quadrupole integrals
        stored in file 35.

  ==> Integral Setup <==

  ==> DFJK: Density-Fitted J/K Matrices <==

    J tasked:                  Yes
    K tasked:                  Yes
    wK tasked:                  No
    OpenMP threads:             16
    Integrals threads:          16
    Memory (MB):              8583
    Algorithm:                Core
    Integral Cache:           NONE
    Schwarz Cutoff:          1E-12
    Fitting Condition:       1E-12

   => Auxiliary Basis Set <=

  Basis Set: cc-pvdz-ri
    Number of shells: 222
    Number of basis function: 744
    Number of Cartesian functions: 744
    Spherical Harmonics?: false
    Max angular momentum: 3

  Minimum eigenvalue in the overlap matrix is 1.1339321030E-02.
  Using Symmetric Orthogonalization.
  SCF Guess: Superposition of Atomic Densities via on-the-fly atomic UHF.

  ==> Iterations <==

                           Total Energy        Delta E     RMS |[F,P]|

   @DF-RHF iter   0:  -454.59887141781013   -4.54599e+02   5.33070e-02 
   @DF-RHF iter   1:  -450.96554260326019    3.63333e+00   7.46125e-03 
   @DF-RHF iter   2:  -451.16796223855221   -2.02420e-01   5.70085e-03 DIIS
   @DF-RHF iter   3:  -451.29017063167856   -1.22208e-01   8.86972e-04 DIIS
   @DF-RHF iter   4:  -451.29862987643418   -8.45924e-03   3.24557e-04 DIIS
   @DF-RHF iter   5:  -451.29975612396942   -1.12625e-03   1.21271e-04 DIIS
   @DF-RHF iter   6:  -451.30001196589268   -2.55842e-04   5.19281e-05 DIIS
   @DF-RHF iter   7:  -451.30004992076721   -3.79549e-05   1.79136e-05 DIIS
   @DF-RHF iter   8:  -451.30005456492103   -4.64415e-06   6.52419e-06 DIIS
   @DF-RHF iter   9:  -451.30005497448082   -4.09560e-07   2.72810e-06 DIIS
   @DF-RHF iter  10:  -451.30005508062976   -1.06149e-07   8.35662e-07 DIIS
   @DF-RHF iter  11:  -451.30005509976485   -1.91351e-08   2.69738e-07 DIIS
   @DF-RHF iter  12:  -451.30005510161521   -1.85037e-09   1.09325e-07 DIIS
   @DF-RHF iter  13:  -451.30005510188033   -2.65118e-10   3.58138e-08 DIIS
   @DF-RHF iter  14:  -451.30005510190512   -2.47837e-11   9.38607e-09 DIIS

  ==> Post-Iterations <==

	Orbital Energies (a.u.)
	-----------------------

	Doubly Occupied:                                                      

	   1A    -20.437553     2A    -20.406024     3A    -15.525606  
	   4A    -15.483916     5A    -11.320073     6A    -11.283933  
	   7A    -11.221988     8A    -11.191412     9A    -11.189660  
	  10A     -1.409691    11A     -1.378669    12A     -1.249263  
	  13A     -1.211844    14A     -1.046063    15A     -0.984979  
	  16A     -0.926553    17A     -0.810605    18A     -0.771522  
	  19A     -0.721594    20A     -0.700793    21A     -0.669966  
	  22A     -0.630740    23A     -0.628243    24A     -0.609503  
	  25A     -0.586355    26A     -0.577719    27A     -0.566104  
	  28A     -0.556521    29A     -0.536455    30A     -0.529908  
	  31A     -0.503517    32A     -0.434694    33A     -0.424985  
	  34A     -0.376774    35A     -0.363410  

	Virtual:                                                              

	  36A      0.178646    37A      0.207829    38A      0.247040  
	  39A      0.290131    40A      0.298852    41A      0.309056  
	  42A      0.323738    43A      0.333969    44A      0.345100  
	  45A      0.348989    46A      0.371108    47A      0.387865  
	  48A      0.412516    49A      0.430407    50A      0.466244  
	  51A      0.488539    52A      0.569338    53A      0.615286  
	  54A      0.628548    55A      0.678113    56A      0.914851  
	  57A      0.919051    58A      0.940508    59A      0.955890  
	  60A      0.961571    61A      0.963956    62A      0.980477  
	  63A      0.991534    64A      1.031720    65A      1.043451  
	  66A      1.082717    67A      1.092113    68A      1.132175  
	  69A      1.200476    70A      1.231455    71A      1.244393  
	  72A      1.307093    73A      1.314840    74A      1.320657  
	  75A      1.338458    76A      1.344467    77A      1.390906  
	  78A      1.423424    79A      1.449777    80A      1.463820  
	  81A      1.481163    82A      1.569421    83A      1.593570  
	  84A      1.632535    85A      1.750253    86A      1.866504  
	  87A      1.924274    88A      1.939611    89A      1.976481  
	  90A      1.989688    91A      2.018028    92A      2.071974  
	  93A      2.089786    94A      2.116945    95A      2.174296  
	  96A      2.226805    97A      2.463668    98A      2.952816  
	  99A      3.057677   100A      3.687015   101A      3.755116  

	Final Occupation by Irrep:
	          A 
	DOCC [    35 ]

  Energy converged.

  @DF-RHF Final Energy:  -451.30005510190512

   => Energetics <=

    Nuclear Repulsion Energy =            467.2274662703453600
    One-Electron Energy =               -1542.5217647141655561
    Two-Electron Energy =                 623.9942433419150802
    DFT Exchange-Correlation Energy =       0.0000000000000000
    Empirical Dispersion Energy =           0.0000000000000000
    Total Energy =                       -451.3000551019051727



Properties will be evaluated at   0.000000,   0.000000,   0.000000 Bohr
  ==> Properties <==


Properties computed using the SCF density density matrix
  Nuclear Dipole Moment: (a.u.)
     X:     2.1074      Y:    -2.8068      Z:    -2.3846

  Electronic Dipole Moment: (a.u.)
     X:    -0.5848      Y:     2.4413      Z:     2.2365

  Dipole Moment: (a.u.)
     X:     1.5226      Y:    -0.3655      Z:    -0.1480     Total:     1.5729

  Dipole Moment: (Debye)
     X:     3.8701      Y:    -0.9290      Z:    -0.3763     Total:     3.9978


  Saving occupied orbitals to File 180.

*** tstop() called on sherlock-ln02.stanford.edu at Sat Apr 19 10:08:10 2014
Module time:
	user time   =      19.07 seconds =       0.32 minutes
	system time =       0.59 seconds =       0.01 minutes
	total time  =          2 seconds =       0.03 minutes
Total time:
	user time   =      19.07 seconds =       0.32 minutes
	system time =       0.59 seconds =       0.01 minutes
	total time  =          2 seconds =       0.03 minutes

  No DF_BASIS_SCF auxiliary basis selected, defaulting to cc-pvdz-ri


*** tstart() called on sherlock-ln02.stanford.edu
*** at Sat Apr 19 10:08:10 2014


         ------------------------------------------------------------
                                   SCF GRAD                          
                          Rob Parrish, Justin Turney,                
                       Andy Simmonett, and Alex Sokolov              
         ------------------------------------------------------------

  ==> Geometry <==

    Molecular point group: c1
    Full point group: C1

    Geometry (in Angstrom), charge = 0, multiplicity = 1:

       Center              X                  Y                   Z       
    ------------   -----------------  -----------------  -----------------
           H          3.221157852117    -0.704678694665    -1.930922100944
           C          2.994303962908    -0.710302654548    -0.877357267829
           H          3.811528111973    -0.262554981633    -0.324118541072
           H          2.869833787517    -1.733514914685    -0.540626420354
           C          1.717645730885     0.070711581924    -0.653447382886
           O          1.083225129993     0.590448054993    -1.564953380589
           N          1.317583531482     0.155764207752     0.633989698036
           H          1.813621826826    -0.332506531570     1.346949268995
           C          0.147407435304     0.945737241367     1.025358163170
           H          0.119072449816     1.836767654287     0.414534936446
           H          0.236908354841     1.212851347927     2.065190683173
           C         -1.160147074565     0.171646306629     0.859573732100
           O         -1.856561464454    -0.136860093023     1.813304373089
           N         -1.467616468078    -0.122310934135    -0.415407422664
           H         -0.846477200041     0.166500520081    -1.144494793190
           C         -2.682440079529    -0.869783977390    -0.726548551906
           H         -2.743770162943    -0.995671881946    -1.797914687722
           H         -3.560028977304    -0.339674830478    -0.379383339142
           H         -2.670332948791    -1.843723645725    -0.253427472708

  Nuclear repulsion =  467.227466270345360

  ==> Basis Set <==

  Basis Set: 3-21G
    Number of shells: 65
    Number of basis function: 101
    Number of Cartesian functions: 101
    Spherical Harmonics?: false
    Max angular momentum: 1

  ==> DFJKGrad: Density-Fitted SCF Gradients <==

    Gradient:                    1
    J tasked:                  Yes
    K tasked:                  Yes
    wK tasked:                  No
    OpenMP threads:             16
    Integrals threads:          16
    Memory (MB):              8583
    Schwarz Cutoff:          0E+00
    Fitting Condition:       1E-12

   => Auxiliary Basis Set <=

  Basis Set: cc-pvdz-ri
    Number of shells: 222
    Number of basis function: 644
    Number of Cartesian functions: 744
    Spherical Harmonics?: true
    Max angular momentum: 3


  -Total Gradient:
     Atom            X                  Y                   Z
    ------   -----------------  -----------------  -----------------
       1       -0.000385907520     0.000018256288     0.000345990480
       2        0.000303106830     0.000015261137    -0.000253845882
       3       -0.000051396161    -0.000013526917     0.000131552994
       4        0.000026625915     0.000013215535    -0.000035791770
       5        0.000162070385    -0.000097650619    -0.000127467195
       6       -0.000080965973     0.000055897385     0.000073881828
       7       -0.000025582341     0.000013687620    -0.000129586535
       8        0.000002567680    -0.000008966120     0.000028154904
       9       -0.000014791436     0.000006646565     0.000011625707
      10        0.000008433120     0.000018899007    -0.000041257956
      11       -0.000002157901    -0.000017259707     0.000022027162
      12        0.000134645837     0.000041384239    -0.000075484789
      13       -0.000079888664    -0.000042044955    -0.000054998645
      14       -0.000020493297    -0.000053255502     0.000121053219
      15       -0.000016880009     0.000015498844    -0.000058886486
      16       -0.000014978503    -0.000003192728     0.000006328719
      17        0.000021683567     0.000004556517     0.000001316899
      18        0.000015264619     0.000019340405     0.000011876067
      19        0.000018643849     0.000013253007     0.000023511276


*** tstop() called on sherlock-ln02.stanford.edu at Sat Apr 19 10:08:13 2014
Module time:
	user time   =      36.27 seconds =       0.60 minutes
	system time =       0.83 seconds =       0.01 minutes
	total time  =          3 seconds =       0.05 minutes
Total time:
	user time   =      55.40 seconds =       0.92 minutes
	system time =       1.43 seconds =       0.02 minutes
	total time  =          5 seconds =       0.08 minutes

  //>>>>>>>>>>>>>>>>>>>>>>>>>>>>>>>>>>>//
  //   Loading displacement 2 of 103   //
  //<<<<<<<<<<<<<<<<<<<<<<<<<<<<<<<<<<<//

  No DF_BASIS_SCF auxiliary basis selected, defaulting to cc-pvdz-ri


*** tstart() called on sherlock-ln02.stanford.edu
*** at Sat Apr 19 10:08:13 2014


         ---------------------------------------------------------
                                   SCF
            by Justin Turney, Rob Parrish, and Andy Simmonett
                              RHF Reference
                       16 Threads,  12000 MiB Core
         ---------------------------------------------------------

  ==> Geometry <==

    Molecular point group: c1
    Full point group: C1

    Geometry (in Angstrom), charge = 0, multiplicity = 1:

       Center              X                  Y                   Z       
    ------------   -----------------  -----------------  -----------------
           H          3.226389044929    -0.704694144499    -1.930981813989
           C          2.994241839938    -0.710322153816    -0.877413043504
           H          3.811479209873    -0.262584258531    -0.324185933261
           H          2.869769139330    -1.733535291079    -0.540685794778
           C          1.717593852961     0.070701240512    -0.653476690047
           O          1.083161729253     0.590448013443    -1.564968794543
           N          1.317554612564     0.155749893884     0.633967787431
           H          1.813601253820    -0.332528900194     1.346916035272
           C          0.147391730542     0.945730275269     1.025360929898
           H          0.119053451631     1.836764352749     0.414543201621
           H          0.236912812406     1.212837806709     2.065193403294
           C         -1.160171962189     0.171650941007     0.859594760768
           O         -1.856572375300    -0.136855137341     1.813335711379
           N         -1.467665803675    -0.122296624429    -0.415382728669
           H         -0.846536788113     0.166513859955    -1.144479217742
           C         -2.682500894624    -0.869758006774    -0.726507050026
           H         -2.743850533410    -0.995639388818    -1.797872832611
           H         -3.560079463049    -0.339643650886    -0.379323680591
           H         -2.670393528363    -1.843700433239    -0.253391654625

  Running in c1 symmetry.

  Nuclear repulsion =  467.214540083044255

  Charge       = 0
  Multiplicity = 1
  Electrons    = 70
  Nalpha       = 35
  Nbeta        = 35

  ==> Algorithm <==

  SCF Algorithm Type is DF.
  DIIS enabled.
  MOM disabled.
  Fractional occupation disabled.
  Guess Type is SAD.
  Energy threshold   = 1.00e-08
  Density threshold  = 1.00e-08
  Integral threshold = 0.00e+00

  ==> Primary Basis <==

  Basis Set: 3-21G
    Number of shells: 65
    Number of basis function: 101
    Number of Cartesian functions: 101
    Spherical Harmonics?: false
    Max angular momentum: 1

  ==> Pre-Iterations <==

   -------------------------------------------------------
    Irrep   Nso     Nmo     Nalpha   Nbeta   Ndocc  Nsocc
   -------------------------------------------------------
     A        101     101       0       0       0       0
   -------------------------------------------------------
    Total     101     101      35      35      35       0
   -------------------------------------------------------

 OEINTS: Wrapper to libmints.
   by Justin Turney

   Calculation information:
      Number of atoms:                  19
      Number of AO shells:              65
      Number of SO shells:              65
      Number of primitives:            111
      Number of atomic orbitals:       101
      Number of basis functions:       101

      Number of irreps:                  1
      Number of functions per irrep: [ 101 ]

      Overlap, kinetic, potential, dipole, and quadrupole integrals
        stored in file 35.

  ==> Integral Setup <==

  ==> DFJK: Density-Fitted J/K Matrices <==

    J tasked:                  Yes
    K tasked:                  Yes
    wK tasked:                  No
    OpenMP threads:             16
    Integrals threads:          16
    Memory (MB):              8583
    Algorithm:                Core
    Integral Cache:           NONE
    Schwarz Cutoff:          1E-12
    Fitting Condition:       1E-12

   => Auxiliary Basis Set <=

  Basis Set: cc-pvdz-ri
    Number of shells: 222
    Number of basis function: 744
    Number of Cartesian functions: 744
    Spherical Harmonics?: false
    Max angular momentum: 3

  Minimum eigenvalue in the overlap matrix is 1.1339367541E-02.
  Using Symmetric Orthogonalization.
  SCF Guess: Superposition of Atomic Densities via on-the-fly atomic UHF.

  ==> Iterations <==

                           Total Energy        Delta E     RMS |[F,P]|

   @DF-RHF iter   0:  -454.59837234108187   -4.54598e+02   5.33023e-02 
   @DF-RHF iter   1:  -450.96550658636926    3.63287e+00   7.46179e-03 
   @DF-RHF iter   2:  -451.16790555055155   -2.02399e-01   5.70217e-03 DIIS
   @DF-RHF iter   3:  -451.29017059283791   -1.22265e-01   8.86839e-04 DIIS
   @DF-RHF iter   4:  -451.29862941371158   -8.45882e-03   3.24623e-04 DIIS
   @DF-RHF iter   5:  -451.29975598068216   -1.12657e-03   1.21279e-04 DIIS
   @DF-RHF iter   6:  -451.30001194005678   -2.55959e-04   5.19328e-05 DIIS
   @DF-RHF iter   7:  -451.30004989504044   -3.79550e-05   1.79123e-05 DIIS
   @DF-RHF iter   8:  -451.30005454140127   -4.64636e-06   6.51627e-06 DIIS
   @DF-RHF iter   9:  -451.30005495004940   -4.08648e-07   2.72906e-06 DIIS
   @DF-RHF iter  10:  -451.30005505613934   -1.06090e-07   8.35358e-07 DIIS
   @DF-RHF iter  11:  -451.30005507526499   -1.91257e-08   2.69473e-07 DIIS
   @DF-RHF iter  12:  -451.30005507711263   -1.84764e-09   1.09155e-07 DIIS
   @DF-RHF iter  13:  -451.30005507737616   -2.63526e-10   3.57656e-08 DIIS
   @DF-RHF iter  14:  -451.30005507740117   -2.50111e-11   9.37717e-09 DIIS

  ==> Post-Iterations <==

	Orbital Energies (a.u.)
	-----------------------

	Doubly Occupied:                                                      

	   1A    -20.437524     2A    -20.406029     3A    -15.525630  
	   4A    -15.483917     5A    -11.320115     6A    -11.283938  
	   7A    -11.222008     8A    -11.191535     9A    -11.189659  
	  10A     -1.409667    11A     -1.378672    12A     -1.249276  
	  13A     -1.211846    14A     -1.045988    15A     -0.984927  
	  16A     -0.926549    17A     -0.810621    18A     -0.771526  
	  19A     -0.721672    20A     -0.700821    21A     -0.669858  
	  22A     -0.630715    23A     -0.628288    24A     -0.609500  
	  25A     -0.586132    26A     -0.577679    27A     -0.566088  
	  28A     -0.556503    29A     -0.536434    30A     -0.529926  
	  31A     -0.503519    32A     -0.434680    33A     -0.424978  
	  34A     -0.376778    35A     -0.363410  

	Virtual:                                                              

	  36A      0.178655    37A      0.207816    38A      0.247053  
	  39A      0.290113    40A      0.298774    41A      0.308867  
	  42A      0.323650    43A      0.333968    44A      0.345059  
	  45A      0.348997    46A      0.371130    47A      0.387872  
	  48A      0.412573    49A      0.430419    50A      0.466212  
	  51A      0.488531    52A      0.569376    53A      0.615283  
	  54A      0.628562    55A      0.678113    56A      0.914872  
	  57A      0.918931    58A      0.940515    59A      0.956133  
	  60A      0.961534    61A      0.963954    62A      0.980464  
	  63A      0.991561    64A      1.032036    65A      1.043578  
	  66A      1.082765    67A      1.092336    68A      1.132142  
	  69A      1.200392    70A      1.231426    71A      1.244325  
	  72A      1.307094    73A      1.314817    74A      1.320658  
	  75A      1.338452    76A      1.343657    77A      1.390911  
	  78A      1.423416    79A      1.449738    80A      1.463802  
	  81A      1.481167    82A      1.569409    83A      1.593434  
	  84A      1.632549    85A      1.750250    86A      1.866372  
	  87A      1.924309    88A      1.939617    89A      1.976478  
	  90A      1.989652    91A      2.018053    92A      2.071922  
	  93A      2.089805    94A      2.116698    95A      2.174297  
	  96A      2.226691    97A      2.463636    98A      2.952928  
	  99A      3.057777   100A      3.687220   101A      3.755104  

	Final Occupation by Irrep:
	          A 
	DOCC [    35 ]

  Energy converged.

  @DF-RHF Final Energy:  -451.30005507740117

   => Energetics <=

    Nuclear Repulsion Energy =            467.2145400830442554
    One-Electron Energy =               -1542.4963776421427610
    Two-Electron Energy =                 623.9817824816973371
    DFT Exchange-Correlation Energy =       0.0000000000000000
    Empirical Dispersion Energy =           0.0000000000000000
    Total Energy =                       -451.3000550774011117



Properties will be evaluated at   0.000000,   0.000000,   0.000000 Bohr
  ==> Properties <==


Properties computed using the SCF density density matrix
  Nuclear Dipole Moment: (a.u.)
     X:     2.1120      Y:    -2.8068      Z:    -2.3846

  Electronic Dipole Moment: (a.u.)
     X:    -0.5887      Y:     2.4414      Z:     2.2367

  Dipole Moment: (a.u.)
     X:     1.5233      Y:    -0.3653      Z:    -0.1480     Total:     1.5735

  Dipole Moment: (Debye)
     X:     3.8719      Y:    -0.9286      Z:    -0.3761     Total:     3.9994


  Saving occupied orbitals to File 180.

*** tstop() called on sherlock-ln02.stanford.edu at Sat Apr 19 10:08:15 2014
Module time:
	user time   =      26.33 seconds =       0.44 minutes
	system time =       1.23 seconds =       0.02 minutes
	total time  =          2 seconds =       0.03 minutes
Total time:
	user time   =      82.20 seconds =       1.37 minutes
	system time =       2.68 seconds =       0.04 minutes
	total time  =          7 seconds =       0.12 minutes

  No DF_BASIS_SCF auxiliary basis selected, defaulting to cc-pvdz-ri


*** tstart() called on sherlock-ln02.stanford.edu
*** at Sat Apr 19 10:08:15 2014


         ------------------------------------------------------------
                                   SCF GRAD                          
                          Rob Parrish, Justin Turney,                
                       Andy Simmonett, and Alex Sokolov              
         ------------------------------------------------------------

  ==> Geometry <==

    Molecular point group: c1
    Full point group: C1

    Geometry (in Angstrom), charge = 0, multiplicity = 1:

       Center              X                  Y                   Z       
    ------------   -----------------  -----------------  -----------------
           H          3.226389044929    -0.704694144499    -1.930981813989
           C          2.994241839938    -0.710322153816    -0.877413043504
           H          3.811479209873    -0.262584258531    -0.324185933261
           H          2.869769139330    -1.733535291079    -0.540685794778
           C          1.717593852961     0.070701240512    -0.653476690047
           O          1.083161729253     0.590448013443    -1.564968794543
           N          1.317554612564     0.155749893884     0.633967787431
           H          1.813601253820    -0.332528900194     1.346916035272
           C          0.147391730542     0.945730275269     1.025360929898
           H          0.119053451631     1.836764352749     0.414543201621
           H          0.236912812406     1.212837806709     2.065193403294
           C         -1.160171962189     0.171650941007     0.859594760768
           O         -1.856572375300    -0.136855137341     1.813335711379
           N         -1.467665803675    -0.122296624429    -0.415382728669
           H         -0.846536788113     0.166513859955    -1.144479217742
           C         -2.682500894624    -0.869758006774    -0.726507050026
           H         -2.743850533410    -0.995639388818    -1.797872832611
           H         -3.560079463049    -0.339643650886    -0.379323680591
           H         -2.670393528363    -1.843700433239    -0.253391654625

  Nuclear repulsion =  467.214540083044255

  ==> Basis Set <==

  Basis Set: 3-21G
    Number of shells: 65
    Number of basis function: 101
    Number of Cartesian functions: 101
    Spherical Harmonics?: false
    Max angular momentum: 1

  ==> DFJKGrad: Density-Fitted SCF Gradients <==

    Gradient:                    1
    J tasked:                  Yes
    K tasked:                  Yes
    wK tasked:                  No
    OpenMP threads:             16
    Integrals threads:          16
    Memory (MB):              8583
    Schwarz Cutoff:          0E+00
    Fitting Condition:       1E-12

   => Auxiliary Basis Set <=

  Basis Set: cc-pvdz-ri
    Number of shells: 222
    Number of basis function: 644
    Number of Cartesian functions: 744
    Spherical Harmonics?: true
    Max angular momentum: 3


  -Total Gradient:
     Atom            X                  Y                   Z
    ------   -----------------  -----------------  -----------------
       1        0.000379910182    -0.000006387335    -0.000341621972
       2       -0.000412930973     0.000021071188     0.000288429652
       3        0.000036791461    -0.000000537786    -0.000168269229
       4        0.000007745242     0.000012839159     0.000004612643
       5        0.000071429244    -0.000124526291     0.000302292748
       6       -0.000039779479     0.000031908442     0.000036728019
       7       -0.000090867791     0.000070998434    -0.000130300531
       8       -0.000002102927    -0.000010981831     0.000026093274
       9       -0.000010163679     0.000004699493     0.000024298636
      10        0.000008151134     0.000019370145    -0.000041274669
      11       -0.000006343756    -0.000014421548     0.000023172937
      12        0.000138466796     0.000044763812    -0.000071533371
      13       -0.000081555167    -0.000043603414    -0.000056026452
      14       -0.000020939415    -0.000054754485     0.000118128834
      15       -0.000018272700     0.000015515433    -0.000057606062
      16       -0.000014707102    -0.000002894646     0.000006444211
      17        0.000021356416     0.000004489114     0.000001059644
      18        0.000015265171     0.000019236437     0.000011811799
      19        0.000018547341     0.000013215679     0.000023559889


*** tstop() called on sherlock-ln02.stanford.edu at Sat Apr 19 10:08:18 2014
Module time:
	user time   =      32.81 seconds =       0.55 minutes
	system time =       1.12 seconds =       0.02 minutes
	total time  =          3 seconds =       0.05 minutes
Total time:
	user time   =     115.06 seconds =       1.92 minutes
	system time =       3.80 seconds =       0.06 minutes
	total time  =         10 seconds =       0.17 minutes

  //>>>>>>>>>>>>>>>>>>>>>>>>>>>>>>>>>>>//
  //   Loading displacement 3 of 103   //
  //<<<<<<<<<<<<<<<<<<<<<<<<<<<<<<<<<<<//

  No DF_BASIS_SCF auxiliary basis selected, defaulting to cc-pvdz-ri


*** tstart() called on sherlock-ln02.stanford.edu
*** at Sat Apr 19 10:08:18 2014


         ---------------------------------------------------------
                                   SCF
            by Justin Turney, Rob Parrish, and Andy Simmonett
                              RHF Reference
                       16 Threads,  12000 MiB Core
         ---------------------------------------------------------

  ==> Geometry <==

    Molecular point group: c1
    Full point group: C1

    Geometry (in Angstrom), charge = 0, multiplicity = 1:

       Center              X                  Y                   Z       
    ------------   -----------------  -----------------  -----------------
           H          3.223773448523    -0.707270068422    -1.930969496477
           C          2.994282173158    -0.710231284560    -0.877402531862
           H          3.811507127245    -0.262487472716    -0.324161869431
           H          2.869825901700    -1.733452332759    -0.540693248948
           C          1.717618057676     0.070764748379    -0.653462698402
           O          1.083183112965     0.590514954133    -1.564950881996
           N          1.317567637878     0.155784559397     0.633980210641
           H          1.813617998885    -0.332496923301     1.346924029107
           C          0.147387212205     0.945736762293     1.025377776688
           H          0.119036995881     1.836780485793     0.414574673300
           H          0.236895591725     1.212828636805     2.065215365460
           C         -1.160160914187     0.171635983267     0.859588963443
           O         -1.856562731712    -0.136898867061     1.813319581654
           N         -1.467639802132    -0.122296044876    -0.415395714474
           H         -0.846510693524     0.166538077586    -1.144482760665
           C         -2.682458735042    -0.869774735107    -0.726541544928
           H         -2.743798050553    -0.995639413675    -1.797909881205
           H         -3.560049706794    -0.339682405403    -0.379355896000
           H         -2.670336869262    -1.843724815188    -0.253442275983

  Running in c1 symmetry.

  Nuclear repulsion =  467.219027458509743

  Charge       = 0
  Multiplicity = 1
  Electrons    = 70
  Nalpha       = 35
  Nbeta        = 35

  ==> Algorithm <==

  SCF Algorithm Type is DF.
  DIIS enabled.
  MOM disabled.
  Fractional occupation disabled.
  Guess Type is SAD.
  Energy threshold   = 1.00e-08
  Density threshold  = 1.00e-08
  Integral threshold = 0.00e+00

  ==> Primary Basis <==

  Basis Set: 3-21G
    Number of shells: 65
    Number of basis function: 101
    Number of Cartesian functions: 101
    Spherical Harmonics?: false
    Max angular momentum: 1

  ==> Pre-Iterations <==

   -------------------------------------------------------
    Irrep   Nso     Nmo     Nalpha   Nbeta   Ndocc  Nsocc
   -------------------------------------------------------
     A        101     101       0       0       0       0
   -------------------------------------------------------
    Total     101     101      35      35      35       0
   -------------------------------------------------------

 OEINTS: Wrapper to libmints.
   by Justin Turney

   Calculation information:
      Number of atoms:                  19
      Number of AO shells:              65
      Number of SO shells:              65
      Number of primitives:            111
      Number of atomic orbitals:       101
      Number of basis functions:       101

      Number of irreps:                  1
      Number of functions per irrep: [ 101 ]

      Overlap, kinetic, potential, dipole, and quadrupole integrals
        stored in file 35.

  ==> Integral Setup <==

  ==> DFJK: Density-Fitted J/K Matrices <==

    J tasked:                  Yes
    K tasked:                  Yes
    wK tasked:                  No
    OpenMP threads:             16
    Integrals threads:          16
    Memory (MB):              8583
    Algorithm:                Core
    Integral Cache:           NONE
    Schwarz Cutoff:          1E-12
    Fitting Condition:       1E-12

   => Auxiliary Basis Set <=

  Basis Set: cc-pvdz-ri
    Number of shells: 222
    Number of basis function: 744
    Number of Cartesian functions: 744
    Spherical Harmonics?: false
    Max angular momentum: 3

  Minimum eigenvalue in the overlap matrix is 1.1339349531E-02.
  Using Symmetric Orthogonalization.
  SCF Guess: Superposition of Atomic Densities via on-the-fly atomic UHF.

  ==> Iterations <==

                           Total Energy        Delta E     RMS |[F,P]|

   @DF-RHF iter   0:  -454.59859410275868   -4.54599e+02   5.33045e-02 
   @DF-RHF iter   1:  -450.96552400295610    3.63307e+00   7.46162e-03 
   @DF-RHF iter   2:  -451.16792548760276   -2.02401e-01   5.70172e-03 DIIS
   @DF-RHF iter   3:  -451.29017071040920   -1.22245e-01   8.86884e-04 DIIS
   @DF-RHF iter   4:  -451.29862975433304   -8.45904e-03   3.24606e-04 DIIS
   @DF-RHF iter   5:  -451.29975623554543   -1.12648e-03   1.21279e-04 DIIS
   @DF-RHF iter   6:  -451.30001217417413   -2.55939e-04   5.19311e-05 DIIS
   @DF-RHF iter   7:  -451.30005012687258   -3.79527e-05   1.79141e-05 DIIS
   @DF-RHF iter   8:  -451.30005477282288   -4.64595e-06   6.51947e-06 DIIS
   @DF-RHF iter   9:  -451.30005518176694   -4.08944e-07   2.72856e-06 DIIS
   @DF-RHF iter  10:  -451.30005528788121   -1.06114e-07   8.35402e-07 DIIS
   @DF-RHF iter  11:  -451.30005530700697   -1.91258e-08   2.69590e-07 DIIS
   @DF-RHF iter  12:  -451.30005530885575   -1.84878e-09   1.09264e-07 DIIS
   @DF-RHF iter  13:  -451.30005530912018   -2.64436e-10   3.57836e-08 DIIS
   @DF-RHF iter  14:  -451.30005530914406   -2.38742e-11   9.38319e-09 DIIS

  ==> Post-Iterations <==

	Orbital Energies (a.u.)
	-----------------------

	Doubly Occupied:                                                      

	   1A    -20.437530     2A    -20.406028     3A    -15.525625  
	   4A    -15.483917     5A    -11.320107     6A    -11.283937  
	   7A    -11.222003     8A    -11.191473     9A    -11.189660  
	  10A     -1.409671    11A     -1.378672    12A     -1.249272  
	  13A     -1.211846    14A     -1.046017    15A     -0.984952  
	  16A     -0.926553    17A     -0.810622    18A     -0.771526  
	  19A     -0.721659    20A     -0.700823    21A     -0.669910  
	  22A     -0.630714    23A     -0.628223    24A     -0.609523  
	  25A     -0.586206    26A     -0.577768    27A     -0.566049  
	  28A     -0.556520    29A     -0.536466    30A     -0.529900  
	  31A     -0.503521    32A     -0.434683    33A     -0.424978  
	  34A     -0.376778    35A     -0.363411  

	Virtual:                                                              

	  36A      0.178653    37A      0.207817    38A      0.247059  
	  39A      0.290117    40A      0.298819    41A      0.308967  
	  42A      0.323646    43A      0.333968    44A      0.345098  
	  45A      0.348972    46A      0.371133    47A      0.387875  
	  48A      0.412561    49A      0.430413    50A      0.466221  
	  51A      0.488528    52A      0.569369    53A      0.615283  
	  54A      0.628556    55A      0.678110    56A      0.914831  
	  57A      0.919012    58A      0.940514    59A      0.956016  
	  60A      0.961521    61A      0.963953    62A      0.980469  
	  63A      0.991501    64A      1.032009    65A      1.043485  
	  66A      1.082829    67A      1.092263    68A      1.132166  
	  69A      1.200463    70A      1.231446    71A      1.244365  
	  72A      1.307086    73A      1.314832    74A      1.320657  
	  75A      1.338451    76A      1.343978    77A      1.390919  
	  78A      1.423422    79A      1.449779    80A      1.463819  
	  81A      1.481155    82A      1.569420    83A      1.593492  
	  84A      1.632550    85A      1.750251    86A      1.866458  
	  87A      1.924241    88A      1.939624    89A      1.976478  
	  90A      1.989684    91A      2.018015    92A      2.071930  
	  93A      2.089793    94A      2.116803    95A      2.174307  
	  96A      2.226737    97A      2.463643    98A      2.952906  
	  99A      3.057761   100A      3.687189   101A      3.755109  

	Final Occupation by Irrep:
	          A 
	DOCC [    35 ]

  Energy converged.

  @DF-RHF Final Energy:  -451.30005530914406

   => Energetics <=

    Nuclear Repulsion Energy =            467.2190274585097427
    One-Electron Energy =               -1542.5050768275702922
    Two-Electron Energy =                 623.9859940599158108
    DFT Exchange-Correlation Energy =       0.0000000000000000
    Empirical Dispersion Energy =           0.0000000000000000
    Total Energy =                       -451.3000553091446818



Properties will be evaluated at   0.000000,   0.000000,   0.000000 Bohr
  ==> Properties <==


Properties computed using the SCF density density matrix
  Nuclear Dipole Moment: (a.u.)
     X:     2.1097      Y:    -2.8090      Z:    -2.3846

  Electronic Dipole Moment: (a.u.)
     X:    -0.5868      Y:     2.4432      Z:     2.2366

  Dipole Moment: (a.u.)
     X:     1.5229      Y:    -0.3659      Z:    -0.1481     Total:     1.5732

  Dipole Moment: (Debye)
     X:     3.8708      Y:    -0.9299      Z:    -0.3763     Total:     3.9987


  Saving occupied orbitals to File 180.

*** tstop() called on sherlock-ln02.stanford.edu at Sat Apr 19 10:08:21 2014
Module time:
	user time   =      27.24 seconds =       0.45 minutes
	system time =       1.54 seconds =       0.03 minutes
	total time  =          3 seconds =       0.05 minutes
Total time:
	user time   =     142.79 seconds =       2.38 minutes
	system time =       5.34 seconds =       0.09 minutes
	total time  =         13 seconds =       0.22 minutes

  No DF_BASIS_SCF auxiliary basis selected, defaulting to cc-pvdz-ri


*** tstart() called on sherlock-ln02.stanford.edu
*** at Sat Apr 19 10:08:21 2014


         ------------------------------------------------------------
                                   SCF GRAD                          
                          Rob Parrish, Justin Turney,                
                       Andy Simmonett, and Alex Sokolov              
         ------------------------------------------------------------

  ==> Geometry <==

    Molecular point group: c1
    Full point group: C1

    Geometry (in Angstrom), charge = 0, multiplicity = 1:

       Center              X                  Y                   Z       
    ------------   -----------------  -----------------  -----------------
           H          3.223773448523    -0.707270068422    -1.930969496477
           C          2.994282173158    -0.710231284560    -0.877402531862
           H          3.811507127245    -0.262487472716    -0.324161869431
           H          2.869825901700    -1.733452332759    -0.540693248948
           C          1.717618057676     0.070764748379    -0.653462698402
           O          1.083183112965     0.590514954133    -1.564950881996
           N          1.317567637878     0.155784559397     0.633980210641
           H          1.813617998885    -0.332496923301     1.346924029107
           C          0.147387212205     0.945736762293     1.025377776688
           H          0.119036995881     1.836780485793     0.414574673300
           H          0.236895591725     1.212828636805     2.065215365460
           C         -1.160160914187     0.171635983267     0.859588963443
           O         -1.856562731712    -0.136898867061     1.813319581654
           N         -1.467639802132    -0.122296044876    -0.415395714474
           H         -0.846510693524     0.166538077586    -1.144482760665
           C         -2.682458735042    -0.869774735107    -0.726541544928
           H         -2.743798050553    -0.995639413675    -1.797909881205
           H         -3.560049706794    -0.339682405403    -0.379355896000
           H         -2.670336869262    -1.843724815188    -0.253442275983

  Nuclear repulsion =  467.219027458509743

  ==> Basis Set <==

  Basis Set: 3-21G
    Number of shells: 65
    Number of basis function: 101
    Number of Cartesian functions: 101
    Spherical Harmonics?: false
    Max angular momentum: 1

  ==> DFJKGrad: Density-Fitted SCF Gradients <==

    Gradient:                    1
    J tasked:                  Yes
    K tasked:                  Yes
    wK tasked:                  No
    OpenMP threads:             16
    Integrals threads:          16
    Memory (MB):              8583
    Schwarz Cutoff:          0E+00
    Fitting Condition:       1E-12

   => Auxiliary Basis Set <=

  Basis Set: cc-pvdz-ri
    Number of shells: 222
    Number of basis function: 644
    Number of Cartesian functions: 744
    Spherical Harmonics?: true
    Max angular momentum: 3


  -Total Gradient:
     Atom            X                  Y                   Z
    ------   -----------------  -----------------  -----------------
       1        0.000007928718    -0.000292885570     0.000013379258
       2       -0.000048824010     0.000312249415    -0.000018178401
       3       -0.000033110773    -0.000004557959     0.000066038258
       4        0.000060630656     0.000000596548    -0.000205410786
       5        0.000094908238    -0.000101742245     0.000222252474
       6       -0.000045089390     0.000040861505     0.000046566497
       7       -0.000085062424     0.000049913719    -0.000130974123
       8        0.000001711618    -0.000006034320     0.000027826517
       9       -0.000014265162     0.000001714357     0.000021380289
      10        0.000008748081     0.000018900532    -0.000041436533
      11       -0.000005058050    -0.000015198661     0.000022845181
      12        0.000136883560     0.000044907082    -0.000072538622
      13       -0.000081296558    -0.000043577103    -0.000055493328
      14       -0.000020687433    -0.000054099829     0.000119060583
      15       -0.000017978531     0.000015025894    -0.000058154660
      16       -0.000014794715    -0.000003074979     0.000006268839
      17        0.000021509453     0.000004460424     0.000001196999
      18        0.000015267259     0.000019302256     0.000011875408
      19        0.000018579462     0.000013238934     0.000023496153


*** tstop() called on sherlock-ln02.stanford.edu at Sat Apr 19 10:08:23 2014
Module time:
	user time   =      33.00 seconds =       0.55 minutes
	system time =       0.67 seconds =       0.01 minutes
	total time  =          2 seconds =       0.03 minutes
Total time:
	user time   =     175.84 seconds =       2.93 minutes
	system time =       6.01 seconds =       0.10 minutes
	total time  =         15 seconds =       0.25 minutes

  //>>>>>>>>>>>>>>>>>>>>>>>>>>>>>>>>>>>//
  //   Loading displacement 4 of 103   //
  //<<<<<<<<<<<<<<<<<<<<<<<<<<<<<<<<<<<//

  No DF_BASIS_SCF auxiliary basis selected, defaulting to cc-pvdz-ri


*** tstart() called on sherlock-ln02.stanford.edu
*** at Sat Apr 19 10:08:23 2014


         ---------------------------------------------------------
                                   SCF
            by Justin Turney, Rob Parrish, and Andy Simmonett
                              RHF Reference
                       16 Threads,  12000 MiB Core
         ---------------------------------------------------------

  ==> Geometry <==

    Molecular point group: c1
    Full point group: C1

    Geometry (in Angstrom), charge = 0, multiplicity = 1:

       Center              X                  Y                   Z       
    ------------   -----------------  -----------------  -----------------
           H          3.223773448523    -0.702102770742    -1.930934418455
           C          2.994263629688    -0.710393523804    -0.877367779470
           H          3.811500194601    -0.262651767448    -0.324142604902
           H          2.869777025146    -1.733597873005    -0.540618966185
           C          1.717621526170     0.070648074057    -0.653461374530
           O          1.083203746282     0.590381114303    -1.564971293137
           N          1.317570506168     0.155729542239     0.633977274827
           H          1.813605081761    -0.332538508463     1.346941275160
           C          0.147411953642     0.945730754343     1.025341316380
           H          0.119088905565     1.836751521243     0.414503464767
           H          0.236925575521     1.212860517831     2.065168721007
           C         -1.160158122566     0.171661264369     0.859579529424
           O         -1.856571108041    -0.136816363303     1.813320502813
           N         -1.467642469621    -0.122311513688    -0.415394436859
           H         -0.846503294629     0.166476302450    -1.144491250268
           C         -2.682482239112    -0.869767249057    -0.726514057005
           H         -2.743822645800    -0.995671857089    -1.797877639128
           H         -3.560058733560    -0.339636075961    -0.379351123733
           H         -2.670389607891    -1.843699263776    -0.253376851350

  Running in c1 symmetry.

  Nuclear repulsion =  467.222969075284311

  Charge       = 0
  Multiplicity = 1
  Electrons    = 70
  Nalpha       = 35
  Nbeta        = 35

  ==> Algorithm <==

  SCF Algorithm Type is DF.
  DIIS enabled.
  MOM disabled.
  Fractional occupation disabled.
  Guess Type is SAD.
  Energy threshold   = 1.00e-08
  Density threshold  = 1.00e-08
  Integral threshold = 0.00e+00

  ==> Primary Basis <==

  Basis Set: 3-21G
    Number of shells: 65
    Number of basis function: 101
    Number of Cartesian functions: 101
    Spherical Harmonics?: false
    Max angular momentum: 1

  ==> Pre-Iterations <==

   -------------------------------------------------------
    Irrep   Nso     Nmo     Nalpha   Nbeta   Ndocc  Nsocc
   -------------------------------------------------------
     A        101     101       0       0       0       0
   -------------------------------------------------------
    Total     101     101      35      35      35       0
   -------------------------------------------------------

 OEINTS: Wrapper to libmints.
   by Justin Turney

   Calculation information:
      Number of atoms:                  19
      Number of AO shells:              65
      Number of SO shells:              65
      Number of primitives:            111
      Number of atomic orbitals:       101
      Number of basis functions:       101

      Number of irreps:                  1
      Number of functions per irrep: [ 101 ]

      Overlap, kinetic, potential, dipole, and quadrupole integrals
        stored in file 35.

  ==> Integral Setup <==

  ==> DFJK: Density-Fitted J/K Matrices <==

    J tasked:                  Yes
    K tasked:                  Yes
    wK tasked:                  No
    OpenMP threads:             16
    Integrals threads:          16
    Memory (MB):              8583
    Algorithm:                Core
    Integral Cache:           NONE
    Schwarz Cutoff:          1E-12
    Fitting Condition:       1E-12

   => Auxiliary Basis Set <=

  Basis Set: cc-pvdz-ri
    Number of shells: 222
    Number of basis function: 744
    Number of Cartesian functions: 744
    Spherical Harmonics?: false
    Max angular momentum: 3

  Minimum eigenvalue in the overlap matrix is 1.1339339396E-02.
  Using Symmetric Orthogonalization.
  SCF Guess: Superposition of Atomic Densities via on-the-fly atomic UHF.

  ==> Iterations <==

                           Total Energy        Delta E     RMS |[F,P]|

   @DF-RHF iter   0:  -454.59864967913830   -4.54599e+02   5.33048e-02 
   @DF-RHF iter   1:  -450.96552561185462    3.63312e+00   7.46142e-03 
   @DF-RHF iter   2:  -451.16794266679602   -2.02417e-01   5.70131e-03 DIIS
   @DF-RHF iter   3:  -451.29017091983332   -1.22228e-01   8.86928e-04 DIIS
   @DF-RHF iter   4:  -451.29862994058084   -8.45902e-03   3.24574e-04 DIIS
   @DF-RHF iter   5:  -451.29975627367838   -1.12633e-03   1.21271e-04 DIIS
   @DF-RHF iter   6:  -451.30001213641805   -2.55863e-04   5.19297e-05 DIIS
   @DF-RHF iter   7:  -451.30005009355472   -3.79571e-05   1.79118e-05 DIIS
   @DF-RHF iter   8:  -451.30005473811894   -4.64456e-06   6.52100e-06 DIIS
   @DF-RHF iter   9:  -451.30005514738212   -4.09263e-07   2.72860e-06 DIIS
   @DF-RHF iter  10:  -451.30005525350572   -1.06124e-07   8.35616e-07 DIIS
   @DF-RHF iter  11:  -451.30005527264092   -1.91352e-08   2.69620e-07 DIIS
   @DF-RHF iter  12:  -451.30005527449038   -1.84946e-09   1.09217e-07 DIIS
   @DF-RHF iter  13:  -451.30005527475481   -2.64436e-10   3.57958e-08 DIIS
   @DF-RHF iter  14:  -451.30005527477982   -2.50111e-11   9.38006e-09 DIIS

  ==> Post-Iterations <==

	Orbital Energies (a.u.)
	-----------------------

	Doubly Occupied:                                                      

	   1A    -20.437548     2A    -20.406025     3A    -15.525612  
	   4A    -15.483916     5A    -11.320082     6A    -11.283933  
	   7A    -11.221992     8A    -11.191474     9A    -11.189659  
	  10A     -1.409686    11A     -1.378669    12A     -1.249266  
	  13A     -1.211844    14A     -1.046034    15A     -0.984953  
	  16A     -0.926549    17A     -0.810604    18A     -0.771522  
	  19A     -0.721607    20A     -0.700792    21A     -0.669914  
	  22A     -0.630742    23A     -0.628309    24A     -0.609479  
	  25A     -0.586279    26A     -0.577631    27A     -0.566143  
	  28A     -0.556504    29A     -0.536423    30A     -0.529934  
	  31A     -0.503516    32A     -0.434691    33A     -0.424984  
	  34A     -0.376774    35A     -0.363409  

	Virtual:                                                              

	  36A      0.178648    37A      0.207828    38A      0.247033  
	  39A      0.290127    40A      0.298808    41A      0.308956  
	  42A      0.323742    43A      0.333969    44A      0.345060  
	  45A      0.349014    46A      0.371104    47A      0.387861  
	  48A      0.412527    49A      0.430413    50A      0.466235  
	  51A      0.488542    52A      0.569344    53A      0.615286  
	  54A      0.628554    55A      0.678116    56A      0.914890  
	  57A      0.918971    58A      0.940510    59A      0.956005  
	  60A      0.961587    61A      0.963958    62A      0.980472  
	  63A      0.991595    64A      1.031751    65A      1.043540  
	  66A      1.082653    67A      1.092187    68A      1.132151  
	  69A      1.200405    70A      1.231435    71A      1.244353  
	  72A      1.307099    73A      1.314826    74A      1.320659  
	  75A      1.338459    76A      1.344146    77A      1.390899  
	  78A      1.423417    79A      1.449737    80A      1.463804  
	  81A      1.481176    82A      1.569410    83A      1.593512  
	  84A      1.632534    85A      1.750252    86A      1.866418  
	  87A      1.924342    88A      1.939605    89A      1.976481  
	  90A      1.989656    91A      2.018066    92A      2.071966  
	  93A      2.089798    94A      2.116840    95A      2.174286  
	  96A      2.226760    97A      2.463662    98A      2.952837  
	  99A      3.057693   100A      3.687046   101A      3.755111  

	Final Occupation by Irrep:
	          A 
	DOCC [    35 ]

  Energy converged.

  @DF-RHF Final Energy:  -451.30005527477982

   => Energetics <=

    Nuclear Repulsion Energy =            467.2229690752843112
    One-Electron Energy =               -1542.5130498445064404
    Two-Electron Energy =                 623.9900254944424205
    DFT Exchange-Correlation Energy =       0.0000000000000000
    Empirical Dispersion Energy =           0.0000000000000000
    Total Energy =                       -451.3000552747797656



Properties will be evaluated at   0.000000,   0.000000,   0.000000 Bohr
  ==> Properties <==


Properties computed using the SCF density density matrix
  Nuclear Dipole Moment: (a.u.)
     X:     2.1097      Y:    -2.8045      Z:    -2.3845

  Electronic Dipole Moment: (a.u.)
     X:    -0.5866      Y:     2.4396      Z:     2.2366

  Dipole Moment: (a.u.)
     X:     1.5230      Y:    -0.3650      Z:    -0.1479     Total:     1.5731

  Dipole Moment: (Debye)
     X:     3.8712      Y:    -0.9276      Z:    -0.3760     Total:     3.9985


  Saving occupied orbitals to File 180.

*** tstop() called on sherlock-ln02.stanford.edu at Sat Apr 19 10:08:26 2014
Module time:
	user time   =      27.88 seconds =       0.46 minutes
	system time =       1.56 seconds =       0.03 minutes
	total time  =          3 seconds =       0.05 minutes
Total time:
	user time   =     204.20 seconds =       3.40 minutes
	system time =       7.58 seconds =       0.13 minutes
	total time  =         18 seconds =       0.30 minutes

  No DF_BASIS_SCF auxiliary basis selected, defaulting to cc-pvdz-ri


*** tstart() called on sherlock-ln02.stanford.edu
*** at Sat Apr 19 10:08:26 2014


         ------------------------------------------------------------
                                   SCF GRAD                          
                          Rob Parrish, Justin Turney,                
                       Andy Simmonett, and Alex Sokolov              
         ------------------------------------------------------------

  ==> Geometry <==

    Molecular point group: c1
    Full point group: C1

    Geometry (in Angstrom), charge = 0, multiplicity = 1:

       Center              X                  Y                   Z       
    ------------   -----------------  -----------------  -----------------
           H          3.223773448523    -0.702102770742    -1.930934418455
           C          2.994263629688    -0.710393523804    -0.877367779470
           H          3.811500194601    -0.262651767448    -0.324142604902
           H          2.869777025146    -1.733597873005    -0.540618966185
           C          1.717621526170     0.070648074057    -0.653461374530
           O          1.083203746282     0.590381114303    -1.564971293137
           N          1.317570506168     0.155729542239     0.633977274827
           H          1.813605081761    -0.332538508463     1.346941275160
           C          0.147411953642     0.945730754343     1.025341316380
           H          0.119088905565     1.836751521243     0.414503464767
           H          0.236925575521     1.212860517831     2.065168721007
           C         -1.160158122566     0.171661264369     0.859579529424
           O         -1.856571108041    -0.136816363303     1.813320502813
           N         -1.467642469621    -0.122311513688    -0.415394436859
           H         -0.846503294629     0.166476302450    -1.144491250268
           C         -2.682482239112    -0.869767249057    -0.726514057005
           H         -2.743822645800    -0.995671857089    -1.797877639128
           H         -3.560058733560    -0.339636075961    -0.379351123733
           H         -2.670389607891    -1.843699263776    -0.253376851350

  Nuclear repulsion =  467.222969075284311

  ==> Basis Set <==

  Basis Set: 3-21G
    Number of shells: 65
    Number of basis function: 101
    Number of Cartesian functions: 101
    Spherical Harmonics?: false
    Max angular momentum: 1

  ==> DFJKGrad: Density-Fitted SCF Gradients <==

    Gradient:                    1
    J tasked:                  Yes
    K tasked:                  Yes
    wK tasked:                  No
    OpenMP threads:             16
    Integrals threads:          16
    Memory (MB):              8583
    Schwarz Cutoff:          0E+00
    Fitting Condition:       1E-12

   => Auxiliary Basis Set <=

  Basis Set: cc-pvdz-ri
    Number of shells: 222
    Number of basis function: 644
    Number of Cartesian functions: 744
    Spherical Harmonics?: true
    Max angular momentum: 3


  -Total Gradient:
     Atom            X                  Y                   Z
    ------   -----------------  -----------------  -----------------
       1       -0.000014727424     0.000304485279    -0.000010812819
       2       -0.000060145391    -0.000276387603     0.000054480873
       3        0.000018487121    -0.000009297123    -0.000102850984
       4       -0.000026157923     0.000025614852     0.000173897765
       5        0.000138475223    -0.000119989273    -0.000046874698
       6       -0.000075610893     0.000046868564     0.000064003514
       7       -0.000031431942     0.000034784688    -0.000128925525
       8       -0.000001250257    -0.000013921305     0.000026422544
       9       -0.000010702681     0.000009630932     0.000014552322
      10        0.000007836849     0.000019369143    -0.000041094892
      11       -0.000003444012    -0.000016481945     0.000022356076
      12        0.000136224754     0.000041240075    -0.000074473637
      13       -0.000080145127    -0.000042069726    -0.000055534277
      14       -0.000020741376    -0.000053909553     0.000120120155
      15       -0.000017179858     0.000015986828    -0.000058336395
      16       -0.000014892752    -0.000003013802     0.000006503092
      17        0.000021530479     0.000004585050     0.000001179448
      18        0.000015262915     0.000019275145     0.000011812492
      19        0.000018612294     0.000013229774     0.000023574943


*** tstop() called on sherlock-ln02.stanford.edu at Sat Apr 19 10:08:28 2014
Module time:
	user time   =      34.48 seconds =       0.57 minutes
	system time =       0.65 seconds =       0.01 minutes
	total time  =          2 seconds =       0.03 minutes
Total time:
	user time   =     238.73 seconds =       3.98 minutes
	system time =       8.23 seconds =       0.14 minutes
	total time  =         20 seconds =       0.33 minutes

  //>>>>>>>>>>>>>>>>>>>>>>>>>>>>>>>>>>>//
  //   Loading displacement 5 of 103   //
  //<<<<<<<<<<<<<<<<<<<<<<<<<<<<<<<<<<<//

  No DF_BASIS_SCF auxiliary basis selected, defaulting to cc-pvdz-ri


*** tstart() called on sherlock-ln02.stanford.edu
*** at Sat Apr 19 10:08:28 2014


         ---------------------------------------------------------
                                   SCF
            by Justin Turney, Rob Parrish, and Andy Simmonett
                              RHF Reference
                       16 Threads,  12000 MiB Core
         ---------------------------------------------------------

  ==> Geometry <==

    Molecular point group: c1
    Full point group: C1

    Geometry (in Angstrom), charge = 0, multiplicity = 1:

       Center              X                  Y                   Z       
    ------------   -----------------  -----------------  -----------------
           H          3.223773448523    -0.704686419582    -1.933548943899
           C          2.994287493043    -0.710318324209    -0.877310761212
           H          3.811509200963    -0.262567638189    -0.324070866985
           H          2.869812585074    -1.733527192126    -0.540571355246
           C          1.717629775876     0.070701159611    -0.653416243087
           O          1.083216347776     0.590430884171    -1.564931081270
           N          1.317559497894     0.155766565105     0.634017483305
           H          1.813591978013    -0.332498895206     1.346984715637
           C          0.147382860516     0.945746111118     1.025371185477
           H          0.119054041668     1.836771007381     0.414539625271
           H          0.236877752374     1.212869505567     2.065201838496
           C         -1.160172521333     0.171656936289     0.859585414318
           O         -1.856593826738    -0.136838993774     1.813314392285
           N         -1.467634439975    -0.122311197262    -0.415395031747
           H         -0.846489752580     0.166492030974    -1.144481043877
           C         -2.682457920543    -0.869784042665    -0.726537147353
           H         -2.743781419315    -0.995681594160    -1.797902526658
           H         -3.560047725959    -0.339669520887    -0.379382435974
           H         -2.670356277327    -1.843719413347    -0.253407080763

  Running in c1 symmetry.

  Nuclear repulsion =  467.210151316954864

  Charge       = 0
  Multiplicity = 1
  Electrons    = 70
  Nalpha       = 35
  Nbeta        = 35

  ==> Algorithm <==

  SCF Algorithm Type is DF.
  DIIS enabled.
  MOM disabled.
  Fractional occupation disabled.
  Guess Type is SAD.
  Energy threshold   = 1.00e-08
  Density threshold  = 1.00e-08
  Integral threshold = 0.00e+00

  ==> Primary Basis <==

  Basis Set: 3-21G
    Number of shells: 65
    Number of basis function: 101
    Number of Cartesian functions: 101
    Spherical Harmonics?: false
    Max angular momentum: 1

  ==> Pre-Iterations <==

   -------------------------------------------------------
    Irrep   Nso     Nmo     Nalpha   Nbeta   Ndocc  Nsocc
   -------------------------------------------------------
     A        101     101       0       0       0       0
   -------------------------------------------------------
    Total     101     101      35      35      35       0
   -------------------------------------------------------

 OEINTS: Wrapper to libmints.
   by Justin Turney

   Calculation information:
      Number of atoms:                  19
      Number of AO shells:              65
      Number of SO shells:              65
      Number of primitives:            111
      Number of atomic orbitals:       101
      Number of basis functions:       101

      Number of irreps:                  1
      Number of functions per irrep: [ 101 ]

      Overlap, kinetic, potential, dipole, and quadrupole integrals
        stored in file 35.

  ==> Integral Setup <==

  ==> DFJK: Density-Fitted J/K Matrices <==

    J tasked:                  Yes
    K tasked:                  Yes
    wK tasked:                  No
    OpenMP threads:             16
    Integrals threads:          16
    Memory (MB):              8583
    Algorithm:                Core
    Integral Cache:           NONE
    Schwarz Cutoff:          1E-12
    Fitting Condition:       1E-12

   => Auxiliary Basis Set <=

  Basis Set: cc-pvdz-ri
    Number of shells: 222
    Number of basis function: 744
    Number of Cartesian functions: 744
    Spherical Harmonics?: false
    Max angular momentum: 3

  Minimum eigenvalue in the overlap matrix is 1.1339363006E-02.
  Using Symmetric Orthogonalization.
  SCF Guess: Superposition of Atomic Densities via on-the-fly atomic UHF.

  ==> Iterations <==

                           Total Energy        Delta E     RMS |[F,P]|

   @DF-RHF iter   0:  -454.59698690940792   -4.54597e+02   5.32953e-02 
   @DF-RHF iter   1:  -450.96542674863571    3.63156e+00   7.46212e-03 
   @DF-RHF iter   2:  -451.16787560507129   -2.02449e-01   5.70267e-03 DIIS
   @DF-RHF iter   3:  -451.29016630873724   -1.22291e-01   8.86890e-04 DIIS
   @DF-RHF iter   4:  -451.29862552387368   -8.45922e-03   3.24617e-04 DIIS
   @DF-RHF iter   5:  -451.29975212933704   -1.12661e-03   1.21271e-04 DIIS
   @DF-RHF iter   6:  -451.30000803458682   -2.55905e-04   5.19357e-05 DIIS
   @DF-RHF iter   7:  -451.30004600555384   -3.79710e-05   1.79004e-05 DIIS
   @DF-RHF iter   8:  -451.30005064965547   -4.64410e-06   6.50663e-06 DIIS
   @DF-RHF iter   9:  -451.30005105762228   -4.07967e-07   2.73079e-06 DIIS
   @DF-RHF iter  10:  -451.30005116361514   -1.05993e-07   8.35512e-07 DIIS
   @DF-RHF iter  11:  -451.30005118275147   -1.91363e-08   2.69219e-07 DIIS
   @DF-RHF iter  12:  -451.30005118459775   -1.84627e-09   1.08834e-07 DIIS
   @DF-RHF iter  13:  -451.30005118486059   -2.62844e-10   3.57318e-08 DIIS
   @DF-RHF iter  14:  -451.30005118488504   -2.44427e-11   9.35870e-09 DIIS

  ==> Post-Iterations <==

	Orbital Energies (a.u.)
	-----------------------

	Doubly Occupied:                                                      

	   1A    -20.437538     2A    -20.406030     3A    -15.525630  
	   4A    -15.483919     5A    -11.320103     6A    -11.283939  
	   7A    -11.222004     8A    -11.191749     9A    -11.189661  
	  10A     -1.409679    11A     -1.378674    12A     -1.249279  
	  13A     -1.211848    14A     -1.045925    15A     -0.984847  
	  16A     -0.926531    17A     -0.810593    18A     -0.771525  
	  19A     -0.721572    20A     -0.700803    21A     -0.669878  
	  22A     -0.630727    23A     -0.628263    24A     -0.609452  
	  25A     -0.586182    26A     -0.577566    27A     -0.565840  
	  28A     -0.556502    29A     -0.536440    30A     -0.529917  
	  31A     -0.503518    32A     -0.434692    33A     -0.424986  
	  34A     -0.376781    35A     -0.363412  

	Virtual:                                                              

	  36A      0.178646    37A      0.207802    38A      0.246995  
	  39A      0.290131    40A      0.298715    41A      0.308691  
	  42A      0.323480    43A      0.333965    44A      0.345054  
	  45A      0.348939    46A      0.371094    47A      0.387867  
	  48A      0.412541    49A      0.430412    50A      0.466233  
	  51A      0.488541    52A      0.569358    53A      0.615295  
	  54A      0.628574    55A      0.678118    56A      0.914851  
	  57A      0.919026    58A      0.940509    59A      0.956406  
	  60A      0.961569    61A      0.963952    62A      0.980459  
	  63A      0.991541    64A      1.032206    65A      1.043533  
	  66A      1.082775    67A      1.092269    68A      1.132148  
	  69A      1.200380    70A      1.231354    71A      1.243948  
	  72A      1.307060    73A      1.314805    74A      1.320655  
	  75A      1.338425    76A      1.342548    77A      1.390909  
	  78A      1.423405    79A      1.449550    80A      1.463761  
	  81A      1.481132    82A      1.569364    83A      1.593200  
	  84A      1.632540    85A      1.750249    86A      1.866399  
	  87A      1.924282    88A      1.939615    89A      1.976477  
	  90A      1.989662    91A      2.018039    92A      2.071935  
	  93A      2.089783    94A      2.116823    95A      2.174305  
	  96A      2.226626    97A      2.463599    98A      2.952855  
	  99A      3.057706   100A      3.687088   101A      3.755106  

	Final Occupation by Irrep:
	          A 
	DOCC [    35 ]

  Energy converged.

  @DF-RHF Final Energy:  -451.30005118488504

   => Energetics <=

    Nuclear Repulsion Energy =            467.2101513169548639
    One-Electron Energy =               -1542.4883945591961947
    Two-Electron Energy =                 623.9781920573562957
    DFT Exchange-Correlation Energy =       0.0000000000000000
    Empirical Dispersion Energy =           0.0000000000000000
    Total Energy =                       -451.3000511848850920



Properties will be evaluated at   0.000000,   0.000000,   0.000000 Bohr
  ==> Properties <==


Properties computed using the SCF density density matrix
  Nuclear Dipole Moment: (a.u.)
     X:     2.1097      Y:    -2.8068      Z:    -2.3868

  Electronic Dipole Moment: (a.u.)
     X:    -0.5870      Y:     2.4414      Z:     2.2391

  Dipole Moment: (a.u.)
     X:     1.5227      Y:    -0.3653      Z:    -0.1478     Total:     1.5729

  Dipole Moment: (Debye)
     X:     3.8703      Y:    -0.9286      Z:    -0.3756     Total:     3.9978


  Saving occupied orbitals to File 180.

*** tstop() called on sherlock-ln02.stanford.edu at Sat Apr 19 10:08:33 2014
Module time:
	user time   =      26.43 seconds =       0.44 minutes
	system time =       3.82 seconds =       0.06 minutes
	total time  =          5 seconds =       0.08 minutes
Total time:
	user time   =     265.65 seconds =       4.43 minutes
	system time =      12.06 seconds =       0.20 minutes
	total time  =         25 seconds =       0.42 minutes

  No DF_BASIS_SCF auxiliary basis selected, defaulting to cc-pvdz-ri


*** tstart() called on sherlock-ln02.stanford.edu
*** at Sat Apr 19 10:08:33 2014


         ------------------------------------------------------------
                                   SCF GRAD                          
                          Rob Parrish, Justin Turney,                
                       Andy Simmonett, and Alex Sokolov              
         ------------------------------------------------------------

  ==> Geometry <==

    Molecular point group: c1
    Full point group: C1

    Geometry (in Angstrom), charge = 0, multiplicity = 1:

       Center              X                  Y                   Z       
    ------------   -----------------  -----------------  -----------------
           H          3.223773448523    -0.704686419582    -1.933548943899
           C          2.994287493043    -0.710318324209    -0.877310761212
           H          3.811509200963    -0.262567638189    -0.324070866985
           H          2.869812585074    -1.733527192126    -0.540571355246
           C          1.717629775876     0.070701159611    -0.653416243087
           O          1.083216347776     0.590430884171    -1.564931081270
           N          1.317559497894     0.155766565105     0.634017483305
           H          1.813591978013    -0.332498895206     1.346984715637
           C          0.147382860516     0.945746111118     1.025371185477
           H          0.119054041668     1.836771007381     0.414539625271
           H          0.236877752374     1.212869505567     2.065201838496
           C         -1.160172521333     0.171656936289     0.859585414318
           O         -1.856593826738    -0.136838993774     1.813314392285
           N         -1.467634439975    -0.122311197262    -0.415395031747
           H         -0.846489752580     0.166492030974    -1.144481043877
           C         -2.682457920543    -0.869784042665    -0.726537147353
           H         -2.743781419315    -0.995681594160    -1.797902526658
           H         -3.560047725959    -0.339669520887    -0.379382435974
           H         -2.670356277327    -1.843719413347    -0.253407080763

  Nuclear repulsion =  467.210151316954864

  ==> Basis Set <==

  Basis Set: 3-21G
    Number of shells: 65
    Number of basis function: 101
    Number of Cartesian functions: 101
    Spherical Harmonics?: false
    Max angular momentum: 1

  ==> DFJKGrad: Density-Fitted SCF Gradients <==

    Gradient:                    1
    J tasked:                  Yes
    K tasked:                  Yes
    wK tasked:                  No
    OpenMP threads:             16
    Integrals threads:          16
    Memory (MB):              8583
    Schwarz Cutoff:          0E+00
    Fitting Condition:       1E-12

   => Auxiliary Basis Set <=

  Basis Set: cc-pvdz-ri
    Number of shells: 222
    Number of basis function: 644
    Number of Cartesian functions: 744
    Spherical Harmonics?: true
    Max angular momentum: 3


  -Total Gradient:
     Atom            X                  Y                   Z
    ------   -----------------  -----------------  -----------------
       1        0.000334472723     0.000018870871    -0.001873486205
       2       -0.000373327098     0.000015261835     0.001743054015
       3       -0.000029924527    -0.000010125183     0.000065261897
       4        0.000008854634     0.000014820736     0.000030526431
       5        0.000128248734    -0.000121827279     0.000128830456
       6       -0.000053493498     0.000042619251     0.000040481266
       7       -0.000066881074     0.000046560594    -0.000134107654
       8        0.000001982529    -0.000009758573     0.000024837529
       9       -0.000010984285     0.000003665005     0.000017618524
      10        0.000007903216     0.000019410781    -0.000041180210
      11       -0.000004525918    -0.000015604173     0.000022577304
      12        0.000137136560     0.000044058993    -0.000072689234
      13       -0.000081236422    -0.000043203836    -0.000055611748
      14       -0.000021106813    -0.000054342181     0.000119097419
      15       -0.000017725998     0.000015535513    -0.000058178664
      16       -0.000014660875    -0.000002933960     0.000006439820
      17        0.000021470573     0.000004511925     0.000001129085
      18        0.000015230409     0.000019266848     0.000011844343
      19        0.000018567133     0.000013212834     0.000023555620


*** tstop() called on sherlock-ln02.stanford.edu at Sat Apr 19 10:08:35 2014
Module time:
	user time   =      32.78 seconds =       0.55 minutes
	system time =       0.67 seconds =       0.01 minutes
	total time  =          2 seconds =       0.03 minutes
Total time:
	user time   =     298.48 seconds =       4.97 minutes
	system time =      12.73 seconds =       0.21 minutes
	total time  =         27 seconds =       0.45 minutes

  //>>>>>>>>>>>>>>>>>>>>>>>>>>>>>>>>>>>//
  //   Loading displacement 6 of 103   //
  //<<<<<<<<<<<<<<<<<<<<<<<<<<<<<<<<<<<//

  No DF_BASIS_SCF auxiliary basis selected, defaulting to cc-pvdz-ri


*** tstart() called on sherlock-ln02.stanford.edu
*** at Sat Apr 19 10:08:35 2014


         ---------------------------------------------------------
                                   SCF
            by Justin Turney, Rob Parrish, and Andy Simmonett
                              RHF Reference
                       16 Threads,  12000 MiB Core
         ---------------------------------------------------------

  ==> Geometry <==

    Molecular point group: c1
    Full point group: C1

    Geometry (in Angstrom), charge = 0, multiplicity = 1:

       Center              X                  Y                   Z       
    ------------   -----------------  -----------------  -----------------
           H          3.223773448523    -0.704686419582    -1.928354971034
           C          2.994258309803    -0.710306484155    -0.877459550121
           H          3.811498120883    -0.262571601975    -0.324233607348
           H          2.869790341772    -1.733523013638    -0.540740859887
           C          1.717609807970     0.070711662825    -0.653507829846
           O          1.083170511471     0.590465184265    -1.564991093863
           N          1.317578646152     0.155747536531     0.633940002163
           H          1.813631102633    -0.332536536558     1.346880588630
           C          0.147416305330     0.945721405518     1.025347907590
           H          0.119071859779     1.836760999655     0.414538512797
           H          0.236943414872     1.212819649069     2.065182247971
           C         -1.160146515421     0.171640311347     0.859583078549
           O         -1.856540013015    -0.136876236590     1.813325692182
           N         -1.467647831778    -0.122296361302    -0.415395119585
           H         -0.846524235574     0.166522349062    -1.144492967056
           C         -2.682483053611    -0.869757941499    -0.726518454579
           H         -2.743839277039    -0.995629676604    -1.797884993675
           H         -3.560060714395    -0.339648960477    -0.379324583758
           H         -2.670370199826    -1.843704665617    -0.253412046569

  Running in c1 symmetry.

  Nuclear repulsion =  467.231900961415874

  Charge       = 0
  Multiplicity = 1
  Electrons    = 70
  Nalpha       = 35
  Nbeta        = 35

  ==> Algorithm <==

  SCF Algorithm Type is DF.
  DIIS enabled.
  MOM disabled.
  Fractional occupation disabled.
  Guess Type is SAD.
[...]
  H 	   0.355  -0.612   0.052       1.007825
  H 	   0.198   0.094   0.420       1.007825
  H 	  -0.137  -0.186  -0.425       1.007825

   Frequency:       1679.28
   Force constant:   0.1067
	     X       Y       Z           mass	
  H 	   0.155  -0.135   0.036       1.007825
  C 	   0.018  -0.008   0.030      12.000000
  H 	   0.004   0.155  -0.122       1.007825
  H 	  -0.105  -0.050  -0.182       1.007825
  C 	  -0.176   0.082   0.280      12.000000
  O 	   0.012  -0.000  -0.050      15.994915
  N 	   0.260  -0.131  -0.385      14.003074
  H 	  -0.406   0.235   0.400       1.007825
  C 	  -0.012  -0.067   0.092      12.000000
  H 	   0.109   0.039   0.111       1.007825
  H 	  -0.181   0.230  -0.014       1.007825
  C 	   0.033   0.011  -0.023      12.000000
  O 	  -0.025  -0.012   0.029      15.994915
  N 	   0.003   0.005   0.012      14.003074
  H 	  -0.030  -0.022  -0.037       1.007825
  C 	   0.020   0.008  -0.019      12.000000
  H 	  -0.007   0.003  -0.003       1.007825
  H 	  -0.016  -0.048   0.022       1.007825
  H 	  -0.049   0.014   0.025       1.007825

   Frequency:       1691.74
   Force constant:   0.1083
	     X       Y       Z           mass	
  H 	   0.016  -0.009   0.003       1.007825
  C 	   0.001  -0.001   0.001      12.000000
  H 	   0.001   0.012  -0.011       1.007825
  H 	  -0.009  -0.003  -0.013       1.007825
  C 	  -0.018   0.007   0.030      12.000000
  O 	   0.000   0.000  -0.008      15.994915
  N 	   0.025  -0.011  -0.038      14.003074
  H 	  -0.037   0.021   0.035       1.007825
  C 	  -0.008  -0.004   0.003      12.000000
  H 	   0.018  -0.006  -0.004       1.007825
  H 	  -0.037  -0.003   0.006       1.007825
  C 	   0.039   0.032   0.092      12.000000
  O 	   0.010   0.001  -0.045      15.994915
  N 	  -0.103  -0.066  -0.042      14.003074
  H 	   0.094   0.064   0.122       1.007825
  C 	  -0.094  -0.044   0.171      12.000000
  H 	  -0.201  -0.103   0.049       1.007825
  H 	   0.138   0.504  -0.387       1.007825
  H 	   0.538  -0.160  -0.318       1.007825

   Frequency:       1728.05
   Force constant:   0.1130
	     X       Y       Z           mass	
  H 	   0.025  -0.012   0.005       1.007825
  C 	  -0.005   0.001  -0.005      12.000000
  H 	  -0.001   0.013  -0.011       1.007825
  H 	  -0.010  -0.001  -0.008       1.007825
  C 	   0.017  -0.024   0.069      12.000000
  O 	  -0.017   0.018  -0.043      15.994915
  N 	   0.007   0.004  -0.025      14.003074
  H 	   0.001   0.001  -0.006       1.007825
  C 	  -0.018  -0.004  -0.018      12.000000
  H 	   0.021  -0.019  -0.029       1.007825
  H 	  -0.078  -0.053   0.016       1.007825
  C 	   0.142   0.114   0.285      12.000000
  O 	   0.018   0.002  -0.083      15.994915
  N 	  -0.270  -0.193  -0.362      14.003074
  H 	   0.450   0.304   0.453       1.007825
  C 	  -0.014  -0.003   0.044      12.000000
  H 	   0.232   0.139  -0.007       1.007825
  H 	  -0.014  -0.072   0.120       1.007825
  H 	  -0.074   0.038   0.114       1.007825

   Frequency:       1854.11
   Force constant:   0.1301
	     X       Y       Z           mass	
  H 	  -0.103   0.067  -0.021       1.007825
  C 	   0.045  -0.035   0.045      12.000000
  H 	   0.041  -0.079   0.022       1.007825
  H 	   0.087  -0.011   0.029       1.007825
  C 	  -0.413   0.339  -0.555      12.000000
  O 	   0.258  -0.213   0.360      15.994915
  N 	   0.091  -0.062   0.037      14.003074
  H 	  -0.131   0.074   0.174       1.007825
  C 	  -0.010   0.028  -0.003      12.000000
  H 	   0.039  -0.023  -0.052       1.007825
  H 	   0.012  -0.065   0.019       1.007825
  C 	  -0.104  -0.055   0.128      12.000000
  O 	   0.072   0.035  -0.090      15.994915
  N 	   0.010   0.006  -0.037      14.003074
  H 	   0.038  -0.001   0.035       1.007825
  C 	  -0.008  -0.003   0.007      12.000000
  H 	   0.027   0.015  -0.001       1.007825
  H 	  -0.003  -0.006   0.012       1.007825
  H 	  -0.005   0.002   0.012       1.007825

   Frequency:       1897.27
   Force constant:   0.1362
	     X       Y       Z           mass	
  H 	  -0.019   0.013  -0.004       1.007825
  C 	   0.009  -0.007   0.010      12.000000
  H 	   0.009  -0.015   0.003       1.007825
  H 	   0.017  -0.003   0.005       1.007825
  C 	  -0.087   0.066  -0.118      12.000000
  O 	   0.058  -0.042   0.070      15.994915
  N 	   0.004  -0.011   0.024      14.003074
  H 	  -0.011   0.007   0.022       1.007825
  C 	  -0.046  -0.015   0.057      12.000000
  H 	  -0.065  -0.030  -0.030       1.007825
  H 	   0.122   0.019  -0.015       1.007825
  C 	   0.423   0.190  -0.618      12.000000
  O 	  -0.290  -0.130   0.384      15.994915
  N 	  -0.079  -0.040   0.068      14.003074
  H 	   0.142   0.096   0.189       1.007825
  C 	   0.026   0.016   0.015      12.000000
  H 	  -0.057  -0.032   0.012       1.007825
  H 	  -0.024  -0.027  -0.040       1.007825
  H 	  -0.032  -0.013  -0.041       1.007825

   Frequency:       3207.84
   Force constant:   0.3894
	     X       Y       Z           mass	
  H 	  -0.001  -0.000   0.003       1.007825
  C 	   0.001  -0.001   0.000      12.000000
  H 	  -0.004  -0.002  -0.003       1.007825
  H 	   0.001   0.006  -0.002       1.007825
  C 	  -0.001   0.000  -0.000      12.000000
  O 	   0.001  -0.000   0.000      15.994915
  N 	   0.000   0.000  -0.000      14.003074
  H 	   0.000  -0.000   0.000       1.007825
  C 	   0.000  -0.000   0.002      12.000000
  H 	  -0.000   0.002  -0.002       1.007825
  H 	   0.001  -0.000  -0.002       1.007825
  C 	   0.001  -0.000  -0.009      12.000000
  O 	  -0.002  -0.001   0.003      15.994915
  N 	   0.002   0.002   0.006      14.003074
  H 	   0.003   0.002  -0.005       1.007825
  C 	   0.130   0.093  -0.011      12.000000
  H 	  -0.017  -0.045  -0.438       1.007825
  H 	  -0.470   0.307   0.188       1.007825
  H 	   0.027  -0.588   0.288       1.007825

   Frequency:       3213.16
   Force constant:   0.3907
	     X       Y       Z           mass	
  H 	   0.066   0.008  -0.335       1.007825
  C 	  -0.130   0.110  -0.053      12.000000
  H 	   0.460   0.266   0.312       1.007825
  H 	  -0.090  -0.648   0.210       1.007825
  C 	   0.004  -0.002  -0.004      12.000000
  O 	   0.000  -0.000   0.000      15.994915
  N 	   0.000  -0.000   0.001      14.003074
  H 	  -0.002   0.002   0.000       1.007825
  C 	  -0.000  -0.000   0.000      12.000000
  H 	   0.000   0.001  -0.001       1.007825
  H 	  -0.000   0.001   0.002       1.007825
  C 	   0.000   0.000  -0.000      12.000000
  O 	  -0.000  -0.000   0.000      15.994915
  N 	   0.000   0.000  -0.000      14.003074
  H 	  -0.000  -0.000   0.001       1.007825
  C 	   0.001   0.001   0.000      12.000000
  H 	  -0.000  -0.000  -0.004       1.007825
  H 	  -0.004   0.003   0.002       1.007825
  H 	   0.000  -0.005   0.002       1.007825

   Frequency:       3257.80
   Force constant:   0.4016
	     X       Y       Z           mass	
  H 	  -0.000   0.000   0.000       1.007825
  C 	   0.001   0.002   0.000      12.000000
  H 	  -0.004  -0.002  -0.003       1.007825
  H 	  -0.001  -0.004   0.001       1.007825
  C 	  -0.000  -0.000  -0.000      12.000000
  O 	   0.000   0.000   0.000      15.994915
  N 	   0.000   0.000   0.000      14.003074
  H 	  -0.000  -0.000  -0.000       1.007825
  C 	   0.001   0.010  -0.000      12.000000
  H 	   0.001  -0.033   0.023       1.007825
  H 	  -0.002  -0.005  -0.021       1.007825
  C 	   0.000  -0.001  -0.000      12.000000
  O 	  -0.000   0.001  -0.000      15.994915
  N 	  -0.002   0.004  -0.000      14.003074
  H 	   0.004  -0.006   0.001       1.007825
  C 	   0.161  -0.260   0.034      12.000000
  H 	   0.009  -0.025  -0.054       1.007825
  H 	  -0.552   0.335   0.237       1.007825
  H 	  -0.008   0.581  -0.299       1.007825

   Frequency:       3262.61
   Force constant:   0.4028
	     X       Y       Z           mass	
  H 	  -0.000  -0.000   0.004       1.007825
  C 	   0.001   0.001  -0.001      12.000000
  H 	  -0.004  -0.002  -0.002       1.007825
  H 	  -0.000  -0.003   0.001       1.007825
  C 	   0.001  -0.002   0.005      12.000000
  O 	  -0.002   0.002  -0.001      15.994915
  N 	   0.002   0.001  -0.002      14.003074
  H 	  -0.000  -0.004   0.002       1.007825
  C 	  -0.011  -0.232   0.008      12.000000
  H 	  -0.017   0.696  -0.491       1.007825
  H 	   0.042   0.105   0.452       1.007825
  C 	   0.002   0.001   0.000      12.000000
  O 	   0.000  -0.001   0.001      15.994915
  N 	  -0.000   0.001  -0.000      14.003074
  H 	  -0.000  -0.003   0.000       1.007825
  C 	   0.007  -0.012   0.002      12.000000
  H 	   0.000  -0.001  -0.003       1.007825
  H 	  -0.025   0.015   0.011       1.007825
  H 	  -0.000   0.028  -0.015       1.007825

   Frequency:       3268.29
   Force constant:   0.4042
	     X       Y       Z           mass	
  H 	   0.003   0.018   0.042       1.007825
  C 	   0.169   0.248   0.033      12.000000
  H 	  -0.528  -0.280  -0.367       1.007825
  H 	  -0.065  -0.605   0.210       1.007825
  C 	   0.001   0.003   0.000      12.000000
  O 	   0.001   0.001   0.000      15.994915
  N 	  -0.001  -0.001  -0.000      14.003074
  H 	   0.001   0.002   0.000       1.007825
  C 	  -0.000   0.001  -0.000      12.000000
  H 	   0.000  -0.004   0.003       1.007825
  H 	  -0.000  -0.000  -0.002       1.007825
  C 	  -0.000   0.000   0.000      12.000000
  O 	   0.000  -0.000  -0.000      15.994915
  N 	  -0.000  -0.000   0.000      14.003074
  H 	   0.000   0.000  -0.000       1.007825
  C 	  -0.001   0.002  -0.001      12.000000
  H 	  -0.000   0.000   0.002       1.007825
  H 	   0.004  -0.002  -0.002       1.007825
  H 	   0.000  -0.005   0.003       1.007825

   Frequency:       3289.38
   Force constant:   0.4095
	     X       Y       Z           mass	
  H 	  -0.000   0.000   0.001       1.007825
  C 	   0.000   0.000  -0.000      12.000000
  H 	  -0.001  -0.000  -0.000       1.007825
  H 	  -0.000  -0.001   0.000       1.007825
  C 	  -0.000  -0.000   0.001      12.000000
  O 	  -0.000   0.000  -0.000      15.994915
  N 	   0.000  -0.000  -0.000      14.003074
  H 	  -0.000   0.000  -0.000       1.007825
  C 	  -0.000   0.000  -0.001      12.000000
  H 	   0.000  -0.001   0.001       1.007825
  H 	   0.000   0.000   0.001       1.007825
  C 	  -0.003  -0.001   0.001      12.000000
  O 	   0.001   0.001  -0.001      15.994915
  N 	  -0.001  -0.001  -0.004      14.003074
  H 	  -0.004  -0.000   0.012       1.007825
  C 	  -0.056   0.007   0.301      12.000000
  H 	  -0.041  -0.094  -0.848       1.007825
  H 	   0.261  -0.171  -0.085       1.007825
  H 	  -0.016   0.249  -0.099       1.007825

   Frequency:       3327.98
   Force constant:   0.4191
	     X       Y       Z           mass	
  H 	   0.192   0.005  -0.879       1.007825
  C 	  -0.012  -0.026   0.298      12.000000
  H 	  -0.186  -0.106  -0.110       1.007825
  H 	   0.026   0.199  -0.049       1.007825
  C 	   0.003  -0.003   0.009      12.000000
  O 	  -0.001   0.001  -0.003      15.994915
  N 	   0.000   0.000  -0.002      14.003074
  H 	   0.002  -0.001  -0.001       1.007825
  C 	   0.000  -0.001  -0.001      12.000000
  H 	  -0.000   0.002  -0.001       1.007825
  H 	   0.000   0.001   0.003       1.007825
  C 	   0.000   0.000   0.000      12.000000
  O 	  -0.000  -0.000  -0.000      15.994915
  N 	  -0.000  -0.000   0.000      14.003074
  H 	   0.000   0.000  -0.001       1.007825
  C 	  -0.000   0.000   0.000      12.000000
  H 	  -0.000  -0.000  -0.001       1.007825
  H 	   0.000  -0.000  -0.000       1.007825
  H 	  -0.000   0.000  -0.000       1.007825

   Frequency:       3333.05
   Force constant:   0.4204
	     X       Y       Z           mass	
  H 	   0.001   0.000  -0.002       1.007825
  C 	  -0.000   0.000   0.001      12.000000
  H 	  -0.001  -0.000  -0.000       1.007825
  H 	  -0.000  -0.000   0.000       1.007825
  C 	   0.003  -0.001   0.000      12.000000
  O 	  -0.001   0.001  -0.000      15.994915
  N 	  -0.001   0.001  -0.006      14.003074
  H 	   0.001  -0.006   0.014       1.007825
  C 	   0.026  -0.044   0.305      12.000000
  H 	  -0.006   0.370  -0.247       1.007825
  H 	  -0.080  -0.206  -0.811       1.007825
  C 	  -0.003  -0.002   0.011      12.000000
  O 	   0.002   0.000  -0.004      15.994915
  N 	   0.000   0.000  -0.002      14.003074
  H 	  -0.002  -0.002  -0.001       1.007825
  C 	  -0.001  -0.001   0.000      12.000000
  H 	   0.000   0.000   0.000       1.007825
  H 	   0.002  -0.001  -0.000       1.007825
  H 	   0.000   0.003  -0.001       1.007825

   Frequency:       3763.84
   Force constant:   0.5361
	     X       Y       Z           mass	
  H 	   0.001  -0.000  -0.000       1.007825
  C 	   0.000   0.000  -0.001      12.000000
  H 	  -0.001  -0.000  -0.001       1.007825
  H 	  -0.001   0.001  -0.000       1.007825
  C 	   0.003  -0.003   0.011      12.000000
  O 	  -0.003   0.002  -0.006      15.994915
  N 	   0.005  -0.003   0.000      14.003074
  H 	  -0.012   0.012  -0.019       1.007825
  C 	  -0.002   0.000  -0.000      12.000000
  H 	   0.000  -0.001   0.001       1.007825
  H 	   0.000  -0.000   0.000       1.007825
  C 	   0.001   0.001  -0.000      12.000000
  O 	  -0.001  -0.000   0.006      15.994915
  N 	   0.163   0.076  -0.200      14.003074
  H 	  -0.579  -0.269   0.720       1.007825
  C 	  -0.003  -0.002  -0.001      12.000000
  H 	   0.002   0.002   0.007       1.007825
  H 	  -0.010   0.000   0.001       1.007825
  H 	  -0.005  -0.009   0.002       1.007825

   Frequency:       3830.51
   Force constant:   0.5553
	     X       Y       Z           mass	
  H 	  -0.000   0.000  -0.000       1.007825
  C 	  -0.000   0.000   0.000      12.000000
  H 	  -0.001   0.000  -0.001       1.007825
  H 	  -0.000   0.001  -0.001       1.007825
  C 	   0.005  -0.003  -0.004      12.000000
  O 	  -0.002   0.001  -0.004      15.994915
  N 	   0.130  -0.128   0.193      14.003074
  H 	  -0.478   0.468  -0.693       1.007825
  C 	  -0.004   0.001   0.005      12.000000
  H 	  -0.004   0.009  -0.004       1.007825
  H 	   0.001  -0.003  -0.010       1.007825
  C 	  -0.000   0.000   0.000      12.000000
  O 	  -0.000  -0.000  -0.000      15.994915
  N 	  -0.004  -0.002   0.005      14.003074
  H 	   0.015   0.007  -0.018       1.007825
  C 	   0.000   0.000   0.000      12.000000
  H 	  -0.000  -0.000  -0.000       1.007825
  H 	   0.000   0.000   0.000       1.007825
  H 	   0.000   0.000  -0.000       1.007825

-------------------------------------------------------------

            *********************************************
            * Thermodynamic Analysis by R.A. King, 2012 *
            *********************************************

    Full point group: C1 (C1)

    Data used to determine thermochemical information:
    Temperature (K):          298.15
    Pressure (Pa)  :       101325.00
    Multiplicity   :               1
    Rotor type     :  ASYMMETRIC_TOP
    Rotational symmetry number :   1

    Rotational constants:
           wavenumbers          GHz
        A:    0.095881      2.87445
        B:    0.033373      1.00050
        C:    0.027927      0.83722

    Nuclear masses:
          1.007825 12.000000  1.007825  1.007825 12.000000 15.994915
         14.003074  1.007825 12.000000  1.007825  1.007825 12.000000
         15.994915 14.003074  1.007825 12.000000  1.007825  1.007825
          1.007825

    No.    Vib. Freq. (cm^-1)      Vib. Temp. (K)
      1                35.934              51.702
      2                73.299             105.460
      3                82.559             118.784
      4                99.356             142.951
      5               141.236             203.207
      6               188.988             271.911
      7               244.606             351.932
      8               292.486             420.822
      9               326.064             469.133
     10               400.745             576.582
     11               499.668             718.910
     12               620.415             892.637
     13               646.363             929.971
     14               675.478             971.860
     15               696.305            1001.826
     16               840.432            1209.192
     17               875.141            1259.131
     18               905.298            1302.520
     19               952.047            1369.782
     20              1059.764            1524.763
     21              1093.270            1572.970
     22              1175.958            1691.939
     23              1193.659            1717.407
     24              1200.750            1727.610
     25              1274.181            1833.259
     26              1312.921            1888.998
     27              1370.321            1971.583
     28              1405.768            2022.584
     29              1446.590            2081.318
     30              1512.783            2176.554
     31              1560.301            2244.922
     32              1617.338            2326.986
     33              1619.632            2330.286
     34              1636.982            2355.249
     35              1656.413            2383.206
     36              1666.655            2397.942
     37              1679.283            2416.111
     38              1691.741            2434.035
     39              1728.046            2486.269
     40              1854.111            2667.649
     41              1897.272            2729.747
     42              3207.841            4615.362
     43              3213.161            4623.016
     44              3257.797            4687.238
     45              3262.607            4694.158
     46              3268.290            4702.335
     47              3289.383            4732.682
     48              3327.983            4788.219
     49              3333.053            4795.514
     50              3763.836            5415.313
     51              3830.507            5511.238
    Warning: used thermodynamic relations are not appropriate for low frequency modes.    Warning: used thermodynamic relations are not appropriate for low frequency modes.    Warning: used thermodynamic relations are not appropriate for low frequency modes.    Warning: used thermodynamic relations are not appropriate for low frequency modes.    Warning: used thermodynamic relations are not appropriate for low frequency modes.    Warning: used thermodynamic relations are not appropriate for low frequency modes.    Warning: used thermodynamic relations are not appropriate for low frequency modes.    Warning: used thermodynamic relations are not appropriate for low frequency modes.    Warning: used thermodynamic relations are not appropriate for low frequency modes.    Warning: used thermodynamic relations are not appropriate for low frequency modes.    Warning: used thermodynamic relations are not appropriate for low frequency modes.    Warning: used thermodynamic relations are not appropriate for low frequency modes.
    Component        Thermal Energy             Cv              S
                           kcal/mol    cal/(mol K)    cal/(mol K) 
    Electronic                0.000          0.000          0.000
    Translational             0.889          2.981         40.502
    Rotational                0.889          2.981         29.280
    Vibrational             111.722         27.473         30.451
    Total                   113.499         33.435        100.233

                               cm^(-1)              au        kcal/mol
    Zero-point energy       37502.3068      0.17087308        107.2245

    Energies in Hartree/particle:   Correction            Total
    Energy (0 K)                    0.17087308    -451.12918297
    Internal energy                 0.18087288    -451.11918317
    Enthalpy                        0.18181707    -451.11823898
    Gibbs Free Energy               0.13419302    -451.16586303

*** PSI4 exiting successfully. Buy a developer a beer!
