    -----------------------------------------------------------------------
          PSI4: An Open-Source Ab Initio Electronic Structure Package
                              PSI 4.0.0-beta5 Driver

    J. M. Turney, A. C. Simmonett, R. M. Parrish, E. G. Hohenstein,
    F. A. Evangelista, J. T. Fermann, B. J. Mintz, L. A. Burns, J. J. Wilke,
    M. L. Abrams, N. J. Russ, M. L. Leininger, C. L. Janssen, E. T. Seidl,
    W. D. Allen, H. F. Schaefer, R. A. King, E. F. Valeev, C. D. Sherrill,
    and T. D. Crawford, WIREs Comput. Mol. Sci., (2011) (doi: 10.1002/wcms.93)

                         Additional Contributions by
    A. E. DePrince, M. Saitow, U. Bozkaya, A. Yu. Sokolov
    -----------------------------------------------------------------------

    Process ID:  47930
    PSI4DATADIR: /home/leeping/opt/psi-4.0b5/share/psi

    Using LocalCommunicator (Number of processes = 1)

    Memory level set to 256.000 MB

  ==> Input File <==

--------------------------------------------------------------------------
memory 32 gb

import sys
sys.path.insert(0, '/home/leeping/src')
import resp2

molecule CRO {
0 1
    H           -6.096313402677    -1.022667042622    -1.406178737022
    C           -5.209568010137    -0.501055588231    -1.734110306216
    H           -5.189579300703     0.494031225055    -1.303676107288
    H           -5.241290511807    -0.402671492590    -2.814966959853
    C           -3.994240756630    -1.309295420534    -1.339242835117
    O           -4.055344768253    -2.467108610527    -1.038359384787
    C           -1.526273240914    -1.257825716500    -1.176528629790
    C            0.628953330512     0.894269444430     0.772327180600
    C           -1.943101482255    -1.448803346200     1.903241935193
    C           -0.770959250725    -1.346760838978    -2.506074146208
    C            1.571632121045     1.812226448999     0.991769507753
    C            2.418266696610     2.549910646206     0.056864845500
    O            0.491951416129    -1.914340807381    -2.355838374694
    C            2.327250908267     2.442464409390    -1.332253513756
    C            3.378349771081     3.420982265807     0.580824846495
    C            3.162211679979     3.169816060053    -2.156707341192
    C            4.218133614989     4.151017040992    -0.231699318361
    C            4.111169168946     4.025119566568    -1.610263118328
    O            4.948605973903     4.754483640777    -2.369521453598
    C           -0.739320480038    -0.488520430914    -0.143488113686
    N           -2.816338175747    -0.621330860807    -1.355021454371
    C           -0.127211937307     0.256997754196     1.874945565443
    N            0.167861871693     0.352975157357    -0.440366695127
    O           -0.070519835248     0.411257199983     3.057582620448
    C           -1.483269012151    -2.833617885946     2.347377281402
    N           -0.970594150167    -0.624676523012     1.213935988332
    O           -2.230223279408    -3.494231444781     3.013442103525
    H           -1.709544015411    -2.258091978810    -0.814927440982
    H           -2.249480932005    -0.922050477190     2.794218052445
    H           -0.712205111943    -0.362210875031    -2.960362635764
    H            1.727125109425     2.037658671413     2.032788203490
    H            1.060331321052    -1.268733433331    -1.955001276989
    H            1.597448664629     1.789452552998    -1.766180449300
    H            3.468074070681     3.525640788022     1.647541117803
    H            3.076912991472     3.074132715550    -3.225812238693
    H            4.954275840011     4.816458500375     0.177605210914
    H            4.798416709218     4.594067269935    -3.291555585913
    H           -2.819215520859     0.322509448778    -1.672789407677
    H           -2.815010208487    -1.596081662814     1.284196710553
    H           -1.337635883538    -1.988593111610    -3.166538555629
    N           -0.278823185620    -3.261975651814     1.926939466826
    H            0.347772679821    -2.608631101953     1.521066233455
    C            0.249780580041    -4.540074551342     2.357121434414
    H           -0.517955051213    -5.293678989746     2.269462564913
    H            1.081060190075    -4.804628414986     1.717487751788
    H            0.588352999719    -4.510013012038     3.387128106345
     units angstrom
     no_reorient
     symmetry c1
}

set globals {
    basis         6-31G*
    guess         sad
    scf_type      df
    puream        true
    print         1
}

set resp2 {
    N_VDW_LAYERS       4
    VDW_SCALE_FACTOR   1.4
    VDW_INCREMENT      0.2
    VDW_POINT_DENSITY  1.0
    RESP_A             0.01
    RESP_B             0.1
}

energy('scf')
resp2.fit()
--------------------------------------------------------------------------

  Memory set to  32.000 GiB by Python script.
/home/leeping/src/resp2/resp2.so loaded.

  No DF_BASIS_SCF auxiliary basis selected, defaulting to cc-pvdz-jkfit


*** tstart() called on cn6.local
*** at Wed Jun 11 16:36:57 2014


         ---------------------------------------------------------
                                   SCF
            by Justin Turney, Rob Parrish, and Andy Simmonett
                              RHF Reference
                       16 Threads,  32000 MiB Core
         ---------------------------------------------------------

  ==> Geometry <==

    Molecular point group: c1
    Full point group: C1

    Geometry (in Angstrom), charge = 0, multiplicity = 1:

       Center              X                  Y                   Z       
    ------------   -----------------  -----------------  -----------------
           H         -6.096313402677    -1.022667042622    -1.406178737022
           C         -5.209568010137    -0.501055588231    -1.734110306216
           H         -5.189579300703     0.494031225055    -1.303676107288
           H         -5.241290511807    -0.402671492590    -2.814966959853
           C         -3.994240756630    -1.309295420534    -1.339242835117
           O         -4.055344768253    -2.467108610527    -1.038359384787
           C         -1.526273240914    -1.257825716500    -1.176528629790
           C          0.628953330512     0.894269444430     0.772327180600
           C         -1.943101482255    -1.448803346200     1.903241935193
           C         -0.770959250725    -1.346760838978    -2.506074146208
           C          1.571632121045     1.812226448999     0.991769507753
           C          2.418266696610     2.549910646206     0.056864845500
           O          0.491951416129    -1.914340807381    -2.355838374694
           C          2.327250908267     2.442464409390    -1.332253513756
           C          3.378349771081     3.420982265807     0.580824846495
           C          3.162211679979     3.169816060053    -2.156707341192
           C          4.218133614989     4.151017040992    -0.231699318361
           C          4.111169168946     4.025119566568    -1.610263118328
           O          4.948605973903     4.754483640777    -2.369521453598
           C         -0.739320480038    -0.488520430914    -0.143488113686
           N         -2.816338175747    -0.621330860807    -1.355021454371
           C         -0.127211937307     0.256997754196     1.874945565443
           N          0.167861871693     0.352975157357    -0.440366695127
           O         -0.070519835248     0.411257199983     3.057582620448
           C         -1.483269012151    -2.833617885946     2.347377281402
           N         -0.970594150167    -0.624676523012     1.213935988332
           O         -2.230223279408    -3.494231444781     3.013442103525
           H         -1.709544015411    -2.258091978810    -0.814927440982
           H         -2.249480932005    -0.922050477190     2.794218052445
           H         -0.712205111943    -0.362210875031    -2.960362635764
           H          1.727125109425     2.037658671413     2.032788203490
           H          1.060331321052    -1.268733433331    -1.955001276989
           H          1.597448664629     1.789452552998    -1.766180449300
           H          3.468074070681     3.525640788022     1.647541117803
           H          3.076912991472     3.074132715550    -3.225812238693
           H          4.954275840011     4.816458500375     0.177605210914
           H          4.798416709218     4.594067269935    -3.291555585913
           H         -2.819215520859     0.322509448778    -1.672789407677
           H         -2.815010208487    -1.596081662814     1.284196710553
           H         -1.337635883538    -1.988593111610    -3.166538555629
           N         -0.278823185620    -3.261975651814     1.926939466826
           H          0.347772679821    -2.608631101953     1.521066233455
           C          0.249780580041    -4.540074551342     2.357121434414
           H         -0.517955051213    -5.293678989746     2.269462564913
           H          1.081060190075    -4.804628414986     1.717487751788
           H          0.588352999719    -4.510013012038     3.387128106345

  Running in c1 symmetry.

  Nuclear repulsion = 2328.518350286835357

  Charge       = 0
  Multiplicity = 1
  Electrons    = 190
  Nalpha       = 95
  Nbeta        = 95

  ==> Algorithm <==

  SCF Algorithm Type is DF.
  DIIS enabled.
  MOM disabled.
  Fractional occupation disabled.
  Guess Type is SAD.
  Energy threshold   = 1.00e-06
  Density threshold  = 1.00e-06
  Integral threshold = 0.00e+00

  ==> Primary Basis <==

  Basis Set: 6-31G*
    Number of shells: 196
    Number of basis function: 404
    Number of Cartesian functions: 430
    Spherical Harmonics?: true
    Max angular momentum: 2

  ==> Pre-Iterations <==

   -------------------------------------------------------
    Irrep   Nso     Nmo     Nalpha   Nbeta   Ndocc  Nsocc
   -------------------------------------------------------
     A        404     404       0       0       0       0
   -------------------------------------------------------
    Total     404     404      95      95      95       0
   -------------------------------------------------------

 OEINTS: Wrapper to libmints.
   by Justin Turney

   Calculation information:
      Number of atoms:                  46
      Number of AO shells:             196
      Number of SO shells:             196
      Number of primitives:            470
      Number of atomic orbitals:       430
      Number of basis functions:       404

      Number of irreps:                  1
      Number of functions per irrep: [ 404 ]

      Overlap, kinetic, potential, dipole, and quadrupole integrals
        stored in file 35.

  ==> Integral Setup <==

  ==> DFJK: Density-Fitted J/K Matrices <==

    J tasked:                  Yes
    K tasked:                  Yes
    wK tasked:                  No
    OpenMP threads:             16
    Integrals threads:          16
    Memory (MB):             22888
    Algorithm:                Core
    Integral Cache:           NONE
    Schwarz Cutoff:          1E-12
    Fitting Condition:       1E-12

   => Auxiliary Basis Set <=

  Basis Set: cc-pvdz-jkfit
    Number of shells: 804
    Number of basis function: 2280
    Number of Cartesian functions: 2606
    Spherical Harmonics?: true
    Max angular momentum: 3

  Minimum eigenvalue in the overlap matrix is 3.9405951672E-04.
  Using Symmetric Orthogonalization.
  SCF Guess: Superposition of Atomic Densities via on-the-fly atomic UHF.

  ==> Iterations <==

                           Total Energy        Delta E     RMS |[F,P]|

   @DF-RHF iter   0: -1259.65387230885608   -1.25965e+03   2.38682e-02 
   @DF-RHF iter   1: -1246.75755297459591    1.28963e+01   2.66676e-03 
   @DF-RHF iter   2: -1247.32921746752936   -5.71664e-01   1.61562e-03 DIIS
   @DF-RHF iter   3: -1247.50943454595927   -1.80217e-01   4.87161e-04 DIIS
   @DF-RHF iter   4: -1247.54026373226316   -3.08292e-02   1.66273e-04 DIIS
   @DF-RHF iter   5: -1247.54390120218886   -3.63747e-03   5.44289e-05 DIIS
   @DF-RHF iter   6: -1247.54458100530792   -6.79803e-04   2.01175e-05 DIIS
   @DF-RHF iter   7: -1247.54467643409134   -9.54288e-05   7.73552e-06 DIIS
   @DF-RHF iter   8: -1247.54468852657919   -1.20925e-05   3.38014e-06 DIIS
   @DF-RHF iter   9: -1247.54469187700170   -3.35042e-06   1.37611e-06 DIIS
   @DF-RHF iter  10: -1247.54469256775474   -6.90753e-07   5.30651e-07 DIIS

  ==> Post-Iterations <==

	Orbital Energies (a.u.)
	-----------------------

	Doubly Occupied:                                                      

	   1A    -20.607470     2A    -20.564937     3A    -20.551445  
	   4A    -20.542125     5A    -20.517517     6A    -15.628098  
	   7A    -15.607732     8A    -15.583868     9A    -15.577246  
	  10A    -11.369354    11A    -11.367912    12A    -11.348768  
	  13A    -11.346574    14A    -11.322290    15A    -11.297692  
	  16A    -11.288851    17A    -11.282852    18A    -11.274042  
	  19A    -11.271943    20A    -11.256823    21A    -11.254329  
	  22A    -11.251368    23A    -11.250924    24A    -11.244331  
	  25A    -11.243827    26A    -11.237418    27A     -1.432573  
	  28A     -1.426831    29A     -1.413438    30A     -1.390745  
	  31A     -1.382799    32A     -1.353433    33A     -1.261902  
	  34A     -1.239086    35A     -1.218974    36A     -1.175494  
	  37A     -1.097927    38A     -1.064834    39A     -1.040677  
	  40A     -1.025209    41A     -1.014494    42A     -0.995669  
	  43A     -0.946150    44A     -0.933331    45A     -0.877270  
	  46A     -0.868060    47A     -0.838909    48A     -0.820234  
	  49A     -0.807213    50A     -0.789113    51A     -0.785257  
	  52A     -0.759231    53A     -0.736684    54A     -0.719381  
	  55A     -0.711492    56A     -0.699162    57A     -0.687680  
	  58A     -0.682058    59A     -0.671717    60A     -0.663990  
	  61A     -0.644871    62A     -0.641803    63A     -0.634003  
	  64A     -0.630404    65A     -0.625480    66A     -0.619519  
	  67A     -0.611652    68A     -0.608799    69A     -0.608389  
	  70A     -0.599662    71A     -0.591940    72A     -0.590175  
	  73A     -0.579266    74A     -0.577927    75A     -0.571863  
	  76A     -0.559593    77A     -0.551020    78A     -0.541886  
	  79A     -0.541114    80A     -0.522773    81A     -0.514278  
	  82A     -0.511073    83A     -0.509232    84A     -0.505215  
	  85A     -0.497728    86A     -0.468337    87A     -0.456970  
	  88A     -0.438643    89A     -0.427347    90A     -0.411842  
	  91A     -0.403328    92A     -0.389468    93A     -0.371600  
	  94A     -0.358203    95A     -0.296601  

	Virtual:                                                              

	  96A      0.051245    97A      0.127054    98A      0.160525  
	  99A      0.186186   100A      0.195151   101A      0.203188  
	 102A      0.206304   103A      0.209254   104A      0.217806  
	 105A      0.230023   106A      0.241794   107A      0.256824  
	 108A      0.265955   109A      0.271094   110A      0.273027  
	 111A      0.287240   112A      0.293663   113A      0.301375  
	 114A      0.305386   115A      0.310967   116A      0.317905  
	 117A      0.321979   118A      0.328663   119A      0.332064  
	 120A      0.336334   121A      0.344422   122A      0.346746  
	 123A      0.366073   124A      0.374266   125A      0.379805  
	 126A      0.383919   127A      0.386184   128A      0.389527  
	 129A      0.406708   130A      0.424281   131A      0.437593  
	 132A      0.441480   133A      0.451453   134A      0.460659  
	 135A      0.473290   136A      0.490610   137A      0.498952  
	 138A      0.499944   139A      0.510126   140A      0.514149  
	 141A      0.532719   142A      0.545586   143A      0.559402  
	 144A      0.577984   145A      0.601211   146A      0.628618  
	 147A      0.646551   148A      0.663241   149A      0.701377  
	 150A      0.707881   151A      0.721228   152A      0.725094  
	 153A      0.730476   154A      0.734922   155A      0.738989  
	 156A      0.749058   157A      0.752505   158A      0.756034  
	 159A      0.758486   160A      0.765657   161A      0.770826  
	 162A      0.782733   163A      0.789661   164A      0.796280  
	 165A      0.802817   166A      0.804694   167A      0.808826  
	 168A      0.810022   169A      0.820426   170A      0.825213  
	 171A      0.834300   172A      0.840021   173A      0.850469  
	 174A      0.860318   175A      0.861917   176A      0.878549  
	 177A      0.884463   178A      0.895093   179A      0.897668  
	 180A      0.915598   181A      0.927241   182A      0.932170  
	 183A      0.949506   184A      0.952167   185A      0.959830  
	 186A      0.966421   187A      0.968754   188A      0.986721  
	 189A      0.992329   190A      0.999902   191A      1.006569  
	 192A      1.012465   193A      1.017292   194A      1.023803  
	 195A      1.037347   196A      1.048150   197A      1.065413  
	 198A      1.070311   199A      1.076892   200A      1.092158  
	 201A      1.098838   202A      1.105380   203A      1.108455  
	 204A      1.112201   205A      1.121830   206A      1.124273  
	 207A      1.129325   208A      1.131290   209A      1.142329  
	 210A      1.150726   211A      1.157020   212A      1.160934  
	 213A      1.168010   214A      1.172321   215A      1.179058  
	 216A      1.184666   217A      1.189021   218A      1.192124  
	 219A      1.197563   220A      1.207321   221A      1.211268  
	 222A      1.215207   223A      1.219872   224A      1.224924  
	 225A      1.232487   226A      1.239199   227A      1.242985  
	 228A      1.248172   229A      1.256867   230A      1.278534  
	 231A      1.293090   232A      1.298905   233A      1.319325  
	 234A      1.320596   235A      1.328207   236A      1.336987  
	 237A      1.348904   238A      1.364808   239A      1.376412  
	 240A      1.383373   241A      1.397142   242A      1.401523  
	 243A      1.418680   244A      1.419522   245A      1.423303  
	 246A      1.438450   247A      1.451066   248A      1.458540  
	 249A      1.461778   250A      1.480015   251A      1.493184  
	 252A      1.511430   253A      1.523158   254A      1.540645  
	 255A      1.550030   256A      1.562063   257A      1.574381  
	 258A      1.580104   259A      1.596466   260A      1.602621  
	 261A      1.612132   262A      1.628969   263A      1.642737  
	 264A      1.651303   265A      1.666793   266A      1.668125  
	 267A      1.689823   268A      1.695459   269A      1.712082  
	 270A      1.717844   271A      1.720355   272A      1.724484  
	 273A      1.751130   274A      1.755089   275A      1.776064  
	 276A      1.787743   277A      1.792953   278A      1.809309  
	 279A      1.828316   280A      1.881332   281A      1.912873  
	 282A      1.914487   283A      1.939347   284A      1.957815  
	 285A      1.969144   286A      1.994129   287A      2.001888  
	 288A      2.006982   289A      2.019528   290A      2.030614  
	 291A      2.042603   292A      2.045329   293A      2.049782  
	 294A      2.058063   295A      2.063298   296A      2.073234  
	 297A      2.084079   298A      2.097462   299A      2.105875  
	 300A      2.113165   301A      2.115691   302A      2.126314  
	 303A      2.135522   304A      2.140725   305A      2.153778  
	 306A      2.163628   307A      2.178511   308A      2.188624  
	 309A      2.193991   310A      2.218192   311A      2.226325  
	 312A      2.229596   313A      2.237638   314A      2.255865  
	 315A      2.259476   316A      2.264043   317A      2.279647  
	 318A      2.283871   319A      2.293907   320A      2.310175  
	 321A      2.312470   322A      2.325810   323A      2.348782  
	 324A      2.364355   325A      2.376024   326A      2.381905  
	 327A      2.383807   328A      2.392985   329A      2.402311  
	 330A      2.408495   331A      2.418433   332A      2.440103  
	 333A      2.445599   334A      2.458226   335A      2.469527  
	 336A      2.484656   337A      2.499863   338A      2.507280  
	 339A      2.531132   340A      2.539584   341A      2.558936  
	 342A      2.578908   343A      2.584955   344A      2.595927  
	 345A      2.607950   346A      2.625139   347A      2.628841  
	 348A      2.636177   349A      2.641270   350A      2.651713  
	 351A      2.672145   352A      2.690948   353A      2.695499  
	 354A      2.711696   355A      2.722974   356A      2.739916  
	 357A      2.744654   358A      2.750975   359A      2.772010  
	 360A      2.779913   361A      2.793844   362A      2.808909  
	 363A      2.822130   364A      2.824273   365A      2.847119  
	 366A      2.875541   367A      2.898739   368A      2.908773  
	 369A      2.922862   370A      2.928075   371A      2.960248  
	 372A      2.968460   373A      2.978597   374A      2.997735  
	 375A      3.005252   376A      3.012903   377A      3.027164  
	 378A      3.036225   379A      3.062266   380A      3.071226  
	 381A      3.097721   382A      3.106935   383A      3.117914  
	 384A      3.131760   385A      3.156837   386A      3.196004  
	 387A      3.233058   388A      3.250075   389A      3.291804  
	 390A      3.306940   391A      3.309897   392A      3.323237  
	 393A      3.371219   394A      3.379554   395A      3.395863  
	 396A      3.405941   397A      3.426802   398A      3.489803  
	 399A      3.548014   400A      3.568053   401A      3.606732  
	 402A      3.677028   403A      3.739248   404A      3.858689  

	Final Occupation by Irrep:
	          A 
	DOCC [    95 ]

  Energy converged.

  @DF-RHF Final Energy: -1247.54469256775474

   => Energetics <=

    Nuclear Repulsion Energy =           2328.5183502868353571
    One-Electron Energy =               -6334.0596884769011012
    Two-Electron Energy =                2757.9966456223100977
    DFT Exchange-Correlation Energy =       0.0000000000000000
    Empirical Dispersion Energy =           0.0000000000000000
    Total Energy =                      -1247.5446925677556465



Properties will be evaluated at   0.000000,   0.000000,   0.000000 Bohr
  ==> Properties <==


Properties computed using the SCF density density matrix
  Nuclear Dipole Moment: (a.u.)
     X:    -5.6071      Y:    -5.9859      Z:    -7.0770

  Electronic Dipole Moment: (a.u.)
     X:     6.2924      Y:     8.0621      Z:     4.7924

  Dipole Moment: (a.u.)
     X:     0.6854      Y:     2.0763      Z:    -2.2846     Total:     3.1623

  Dipole Moment: (Debye)
     X:     1.7420      Y:     5.2774      Z:    -5.8070     Total:     8.0378


  Saving occupied orbitals to File 180.

*** tstop() called on cn6.local at Wed Jun 11 16:37:28 2014
Module time:
	user time   =     392.40 seconds =       6.54 minutes
	system time =       6.75 seconds =       0.11 minutes
	total time  =         31 seconds =       0.52 minutes
Total time:
	user time   =     392.40 seconds =       6.54 minutes
	system time =       6.75 seconds =       0.11 minutes
	total time  =         31 seconds =       0.52 minutes
Reading options from the RESP2 block
Calling plugin resp2.so.
RESP: Using default charge groups. Every atom will be assigned a unique charge


Properties will be evaluated at   0.000000,   0.000000,   0.000000 Bohr

 Electrostatic potentials at van der Waals shells:
 ---------------------------------------------------
   x   y   z  Electrostatic Potential (a.u.)
 ---------------------------------------------------
     -12.37364 -2.04623  0.39852      0.009888478682
     -14.59040 -2.27569 -3.38950      0.015790246815
     -12.88137 -4.52992 -3.87399      0.003466841033
     -13.21381 -3.83255 -0.75960      0.004658501811
     -9.94480 -0.66675  1.21071      0.017460048574
     -9.94480 -0.66675  1.21071      0.017460048574
     -12.39497  0.27242  0.22118      0.014903800857
     -11.82008 -2.45726  0.47058      0.006679319923
     -9.94480 -0.66675  1.21071      0.017460048574
     -12.89330  2.02057 -1.81819      0.020184012251
     -13.93317 -0.16673 -1.57307      0.017330529728
     -13.15658  1.90907 -4.32711      0.019378945946
     -12.89330  2.02057 -1.81819      0.020184012251
     -14.17741  0.09248 -3.88932      0.016807180818
     -11.83298 -4.51816 -5.15323      0.001097013585
     -10.21108  2.39346 -6.26630      0.029165984133
     -13.13378 -2.44059 -5.95624      0.013551886387
     -13.33148 -0.22381 -6.02421      0.018325187850
     -9.22746 -4.15080 -6.37244      0.010515843916
     -11.35330 -3.48439 -6.67006      0.012757101453
     -11.55422  3.16230 -3.92517      0.026248525213
     -8.70926  2.97126 -5.17098      0.036802258185
     -12.22381  1.64570 -6.07810      0.022888894664
     -8.54939  3.68298 -1.49483      0.037454071767
     -11.99026  2.91247 -1.28213      0.024239348200
     -10.62074  3.84571 -3.43112      0.029902603207
     -10.25219  2.89956 -0.01092      0.027513016866
     -9.87191 -0.59179 -8.48958      0.029111839691
     -8.73973  1.26209 -7.47112      0.034469445285
     -11.84979  0.29505 -7.59550      0.025405865496
     -9.21450 -2.50462 -7.88122      0.025235444323
     -9.05666 -5.01174 -5.92387     -0.004632848958
     -6.59482 -2.07961 -6.90843      0.029679408757
     -7.58648 -3.89047 -6.79937      0.016548703957
     -5.70831 -8.04013 -0.99385     -0.041515433284
     -8.08521 -7.67638 -4.59048     -0.036827216271
     -5.21894 -6.79319 -4.34003     -0.021799071322
     -9.71248 -6.43578  1.00882     -0.046038080815
     -6.82930 -7.37657  0.88511     -0.047501673277
     -11.30653 -5.10673 -0.31851     -0.030268934384
     -10.16147 -7.44582 -0.48488     -0.048985305326
     -11.35910 -6.21997 -2.25697     -0.036489187911
     -9.65409 -8.14891 -2.18857     -0.047979765634
     -5.70831 -8.04013 -0.99385     -0.041515433284
     -7.56449 -8.67107 -2.26223     -0.046685625639
     -10.01295 -6.37874 -4.73792     -0.029614532385
     -8.08521 -7.67638 -4.59048     -0.036827216271
     -5.21894 -6.79319 -4.34003     -0.021799071322
      4.45423 -0.64728 -0.56553      0.007318446751
     -1.86009  4.65735  2.91829      0.003899938946
     -2.12338  4.54585  0.40937      0.007116889221
     -1.86009  4.65735  2.91829      0.003899938946
      3.01607 -2.40121  1.84767      0.034735996806
      4.66238 -1.15808  1.68158      0.007596333756
      4.45423 -0.64728 -0.56553      0.007318446751
     -7.76045 -1.95771  5.30053      0.000860656900
     -6.98386  0.11809  2.54649      0.019484900839
     -5.38150  1.37132  2.94843      0.016942884140
      1.54946  0.09498 -6.79009      0.017600751591
     -4.94372 -1.82196 -7.48301      0.026017508305
     -0.83971 -5.74895 -7.83124     -0.006013450489
      0.68642 -3.78852 -8.48917     -0.014756407108
     -0.50370 -2.15041 -9.11342      0.007186439592
     -3.83606  0.04755 -7.53690      0.030600641825
     -2.28076 -6.95442 -5.06182     -0.003282028490
     -2.37123 -0.93361 -8.83401      0.018965586363
     -1.49536 -3.96127 -9.00436      0.007669667338
      6.23796  3.64941  4.95599      0.021639428371
     -0.07868  6.39204  3.33298     -0.000098547551
     -0.34197  6.28054  0.82405     -0.001685142324
     -0.07868  6.39204  3.33298     -0.000098547551
      4.80803  0.41375  4.66418      0.000341971536
      6.41513  1.37110  3.90931      0.005711300898
      6.44378  0.57661  2.09627      0.001492383883
      1.83170  6.53095  4.92097      0.009697123269
      1.52122  7.78606  1.56627     -0.001284034280
      1.25794  7.67456 -0.94266     -0.005940357703
      1.52122  7.78606  1.56627     -0.001284034280
      6.39738  0.72749  0.49564     -0.001424308058
      8.04369  1.97063  0.32955     -0.006773792569
      2.86029  8.92779 -0.54072     -0.009598221353
      2.88483 -6.99555 -3.48352     -0.028213175033
      4.52407 -4.22620 -2.75458      0.010084195359
      0.50794 -6.63180 -7.08015     -0.027514590003
      3.37421 -5.74861 -6.82971     -0.032718904050
      1.27881 -4.16801 -8.42005     -0.022049925615
      1.76385 -6.33199 -1.60457     -0.014824738472
     -1.06095 -7.10433 -4.67825     -0.017245887872
      2.88483 -6.99555 -3.48352     -0.028213175033
      1.02866 -7.62649 -4.75191     -0.033719558069
      4.52407 -4.22620 -2.75458      0.010084195359
      4.79668 -4.42920 -5.19922     -0.010277094949
      2.62481 -1.30311 -7.26984      0.000322643351
      3.93702 -3.08185 -7.06721     -0.014241034423
      0.50794 -6.63180 -7.08015     -0.027514590003
      3.37421 -5.74861 -6.82971     -0.032718904050
      1.08594  7.47152 -3.56771      0.000645423632
      0.06511  5.65493 -3.12992      0.005276021264
      6.22539  0.52445 -2.12941      0.002673878340
      7.87170  1.76759 -2.29550     -0.006110242379
      0.91105  5.33864 -5.26481      0.015332669873
      5.01506  1.41165 -5.61304      0.016800934231
      5.40323  0.48421 -3.98351      0.012602729561
      2.50041  4.40485 -6.58984      0.026665252520
      3.83385  7.68400  4.59577      0.018128653841
      9.65216  6.68952  4.17941      0.016488005919
      6.33503 10.63655  2.77730      0.005924173804
      3.33552  9.43215  2.55641      0.000960747622
      3.07223  9.32065  0.04748     -0.008724948261
      3.33552  9.43215  2.55641      0.000960747622
      8.22223  3.45385  3.88760      0.008636252618
      9.82933  4.41121  3.13274      0.003426309841
      8.21168  2.37358  1.48578     -0.004030744743
      9.85799  3.61672  1.31969     -0.005791961578
      5.24590  9.57106  4.14440      0.012128122355
      9.24140  3.65288 -6.10061      0.012282137977
      2.92707  8.95751 -2.61678     -0.008270603877
      2.66379  8.84601 -5.12570      0.002547902827
      2.92707  8.95751 -2.61678     -0.008270603877
      7.80323  1.89894 -3.68740     -0.003940235946
      9.44954  3.14208 -3.85349     -0.003065692211
      5.60929  9.33040 -7.06489      0.035427350640
      2.68659  4.49635 -6.75483      0.027250908370
      2.48889  6.71314 -6.82281      0.018072357539
      6.59291  2.78614 -7.17103      0.019843709005
      9.24140  3.65288 -6.10061      0.012282137977
      4.26615 10.09924 -4.72376      0.003375514631
      3.59656  8.58264 -6.87669      0.016746352740
      6.98108  1.85871 -5.54150      0.006988211671
     12.36661  7.90617  0.51282      0.004881807347
      7.92199 12.01611  1.24185      0.005281594208
      8.10992 12.33272 -0.68807     -0.001717563208
      4.92248 10.81171  1.02096     -0.006332592289
      4.65919 10.70022 -1.48797     -0.008356423134
      4.92248 10.81171  1.02096     -0.006332592289
     11.41629  5.79078  1.59729     -0.001103385321
      9.79864  3.75315 -0.04966     -0.010306852071
     11.44495  4.99628 -0.21576     -0.007152569037
     12.36661  7.90617  0.51282      0.004881807347
      6.83286 10.95062  2.60895      0.006382394082
      6.26155 11.95344 -1.08602     -0.006011516247
     12.24758  7.80354 -1.83004     -0.009875120766
     11.03467  5.26917 -5.06798      0.007203613766
      4.45706 10.46230 -4.09307      0.000769660371
      9.59650  3.51523 -2.65477     -0.006598998569
     11.24281  4.75837 -2.82086     -0.003545594385
     11.03467  5.26917 -5.06798      0.007203613766
      6.05942 11.71553 -3.69113     -0.003013130606
      5.38983 10.19893 -5.84406      0.017360290663
     10.15484 12.82129 -3.57988     -0.020241052041
     12.94593  8.37605 -2.78043     -0.017682327358
      9.08189 12.42165 -6.54792      0.004570309568
     11.79606  6.85364 -6.85556      0.021139787288
     10.15484 12.82129 -3.57988     -0.020241052041
     12.65161 10.77525 -3.03751     -0.021093733098
     10.15484 12.82129 -3.57988     -0.020241052041
     12.50726 11.27619 -5.45825     -0.012031152498
     10.15484 12.82129 -3.57988     -0.020241052041
      6.94299 12.07749 -5.37480     -0.000283286448
     12.94593  8.37605 -2.78043     -0.017682327358
     13.21854  8.17306 -5.22508     -0.010413435067
     11.04667 11.29914 -7.29570      0.015893907848
     12.35888  9.52040 -7.09306      0.013291966841
     11.79606  6.85364 -6.85556      0.021139787288
     -4.44575  2.04426  1.18765      0.022650933790
     -4.44575  2.04426  1.18765      0.022650933790
      2.07672 -3.77117 -0.04906      0.033260784258
     -3.10668  3.18599 -0.91933      0.020964530982
     -5.60607 -0.02839 -6.48776      0.037924293797
     -3.28904  3.45308  5.00194     -0.006568181514
     -3.55232  3.34159  2.49302      0.016222599782
     -3.28904  3.45308  5.00194     -0.006568181514
      3.20478 -1.56785  5.57827     -0.006636878014
      3.23343 -2.36235  3.76523      0.024505537900
     -1.94996  4.59481  2.89496      0.004648573499
     -0.39926  3.74383 -3.44670     -0.000219802015
     -2.41315  3.60975 -1.66961      0.010865955083
      4.24075 -0.31147 -1.51349      0.009393518841
     -1.94448  2.42119 -3.76874      0.018544551046
     -0.02464  0.59304  9.79364     -0.044201595835
      0.67007  4.61378  6.67586     -0.024629729921
     -3.06067  2.93804  7.49033     -0.030850352805
      1.82192 -2.60081  6.74636     -0.018266745414
      3.46116  0.16854  7.47531     -0.029673095258
     -0.02464  0.59304  9.79364     -0.044201595835
      0.93645  2.98137  8.96678     -0.040320788738
     -0.02464  0.59304  9.79364     -0.044201595835
     -2.18225 -0.99646  8.74903     -0.037514870137
     -0.02464  0.59304  9.79364     -0.044201595835
      0.70093 -1.93725  8.62532     -0.037212658340
      0.67007  4.61378  6.67586     -0.024629729921
      3.16684  2.56775  7.21823     -0.023412839636
      0.67007  4.61378  6.67586     -0.024629729921
      0.67007  4.61378  6.67586     -0.024629729921
     -3.06067  2.93804  7.49033     -0.030850352805
     -3.06067  2.93804  7.49033     -0.030850352805
      1.82192 -2.60081  6.74636     -0.018266745414
      3.46116  0.16854  7.47531     -0.029673095258
     -1.83820 -2.70033  7.93607     -0.020314418469
     -0.75109 -6.40607  8.29757     -0.019458764430
      0.46503 -5.12997  7.51771     -0.009397799205
     -6.09210 -6.84850  1.75665     -0.034157955197
     -4.31161 -7.89229  1.04284     -0.020033155793
      0.14458 -3.26624  7.11507     -0.016134653791
     -4.56452  1.76225  1.45657      0.021067585439
     -4.10589 -6.78726  9.71023     -0.051879329024
     -7.14191 -4.44226  7.40691     -0.044894678195
     -7.66627 -6.32467  3.65033     -0.046344218718
     -4.63623 -9.61736  3.06632     -0.038676911818
     -4.10589 -6.78726  9.71023     -0.051879329024
     -3.14480 -4.39893  8.88336     -0.034695440054
     -4.10589 -6.78726  9.71023     -0.051879329024
     -6.26350 -8.37676  8.66562     -0.058887995592
     -4.10589 -6.78726  9.71023     -0.051879329024
     -3.38032 -9.31755  8.54190     -0.051944452106
     -7.85755 -7.04771  7.33829     -0.058694935757
     -7.14191 -4.44226  7.40691     -0.044894678195
     -7.14191 -4.44226  7.40691     -0.044894678195
     -6.71249 -9.38680  7.17192     -0.059295029263
     -7.91012 -8.16095  5.39983     -0.058488229308
     -6.20511 -10.08989  5.46822     -0.056076105517
     -4.11551 -10.61205  5.39456     -0.043349305360
     -6.56397 -8.31972  2.91888     -0.050208722320
     -7.66627 -6.32467  3.65033     -0.046344218718
     -4.63623 -9.61736  3.06632     -0.038676911818
     -4.04576 -6.95163 -3.02596     -0.010855363218
     -3.65622 -7.34253 -0.87667     -0.008191835361
     -0.95960 -6.27439 -0.59513      0.002901532394
     -3.85922 -1.63443  8.42894     -0.012869626383
     -6.43428  0.23646  6.46177      0.007459484689
     -4.69621  0.22356  7.73298     -0.005898009285
     -2.15973  2.22765 -6.56180      0.031646043854
     -1.31318 -0.51533 -8.76434      0.018234913032
     -0.18100  1.33855 -7.74588      0.023092200912
     -3.29105  0.37151 -7.87026      0.028868672317
      3.65547  3.95861  6.99005      0.002766594622
      5.92504  4.23793  5.52863      0.024276802239
      2.81849  5.81660  6.29408      0.011177557262
      4.66499 -2.01024 -2.00720      0.026438384693
      5.01437 -1.71555 -4.43598      0.023451871302
      3.16861 -0.37453 -5.84602      0.022115792444
      2.20355  0.69712 -4.82357      0.022202170622
      1.07356  4.43757 -5.61358      0.020833251235
      3.70885  1.63789 -5.89930      0.023876125367
      6.94539  6.77049  6.26204      0.022821371721
      9.21496  7.04981  4.80062      0.019838758190
      6.10840  8.62848  5.56607      0.020392105871
      6.42337  4.80712  5.68625      0.024087380361
      4.99933  3.12481 -7.58188      0.027138505174
      5.84722  5.97842 -9.26596      0.039053882156
      3.86934  6.86526 -8.37189      0.030228904479
      6.50463  4.06559 -8.65760      0.031638796135
      9.75390  9.20978  3.48426      0.020790294014
     10.61971 11.85119  1.30438      0.014114916794
     12.02347  9.48910  2.02285      0.015095004472
      8.91692 11.06777  2.78830      0.015782371946
     12.37286  9.78379 -0.40594      0.005197841393
     11.47970  7.12200 -7.57256      0.034088898064
      9.10039  8.85068 -9.39020      0.055348954376
     10.23257 10.70456 -8.37174      0.037936452470
      7.12251  9.73752 -8.49613      0.051402783310
      9.75780  6.93785 -8.78184      0.053648603306
     -4.07006  3.35885 -2.19235      0.042733780807
     -6.14140  3.52158 -4.12864      0.055091866621
     -5.29485  0.77860 -6.33118      0.045189999253
     -5.77285  2.57543 -0.70844      0.038136199477
     -4.16267  2.63248 -5.31272      0.051530960850
     -8.46507 -2.68092  2.69628      0.006125688840
     -3.34296 -6.44236 -7.46986      0.007390752027
     -2.49507 -3.58875 -9.15395      0.013575368293
     -2.95342 -6.83325 -5.32057      0.000855950734
     -5.14665 -5.23977 -6.99605      0.012571460397
     -4.47295 -2.70190 -8.25988      0.022270812956
     -1.83766 -5.50158 -8.54559      0.005236622186
     -0.22464 -6.90404 -0.38069     -0.005999986802
      2.90504 -4.56176  5.21290      0.016612829871
      3.31844 -4.54228  4.56162      0.025229637591
      3.66783 -4.24759  2.13283      0.038367354388
      4.86751 -8.51761  5.40499      0.008597892030
     -1.50341 -10.08990  8.20189     -0.023209433616
      2.56144 -4.98778  6.17531      0.004540661595
      2.31009 -11.59036  7.24432      0.004043870655
      3.91719 -10.63301  6.48945      0.006459776932
      0.79113 -12.72699  6.16441      0.001386895047
      2.29954 -12.67064  4.84250      0.005313238859
      3.94585 -11.42750  4.67641      0.009074095548
      4.39229 -6.37575  4.40050      0.017077140084
      4.86751 -8.51761  5.40499      0.008597892030
      1.08921 -11.78344  1.35887      0.002176920914
     -1.03663 -11.11703  1.06125     -0.004290240655
      1.42522 -8.18490  0.07668      0.003799657684
      0.30800 -11.34785  7.99512     -0.003865349159
      1.47738 -12.71087  2.98840      0.003984061931
     -1.42544 -8.79024  0.38207     -0.012551085481
      0.43356 -9.99576  0.18575     -0.002158058410
     -3.27966 -11.40039  5.97211     -0.024082576941
     -1.79398 -12.68806  2.80269     -0.001213337309
     -1.40444 -13.07896  4.95198     -0.001037866516
     -3.59767 -11.48548  3.27650     -0.013805073349
      4.45492 -10.63896  1.89316      0.012949990507
      2.07560 -8.91028  0.07552      0.006640523936
      4.31387 -11.08665  4.19044      0.010847034141
      5.05354 -8.39742  2.50401      0.016629462064
      3.20778 -7.05640  1.09398      0.023966787606
      2.73301 -10.82311  0.68388      0.008225909621
      1.50351 -8.41469  9.54938     -0.000984015539
      3.77308 -8.13537  8.08796      0.005548017099
      0.66652 -6.55671  8.85342     -0.007352640418
      0.98148 -10.37807  8.97359     -0.001589035294
      3.38279 -10.52991  7.34561      0.006405137449
     -14.78582 -2.02252 -4.23625      0.013052125728
     -13.80790 -2.27071  0.13863      0.008164739023
     -12.43119 -4.07467  0.12590     -0.005718251136
     -15.02747 -2.27042 -1.79102      0.011515223974
     -12.82785 -5.20740 -1.80273     -0.008823300615
     -14.41093 -4.09904 -2.99694      0.006543299966
     -13.80043  1.69650 -1.33156      0.015134534500
     -9.59733  0.46067  1.66040      0.017848497275
     -11.81297  0.22465  1.32447      0.012099480792
     -13.43362 -0.39334  0.36075      0.011278712066
     -12.53746 -2.43084  0.84208      0.004503127696
     -11.19440  3.73281 -4.91987      0.023707892034
     -13.80043  1.69650 -1.33156      0.015134534500
     -13.71773  2.38104 -3.86402      0.016957661461
     -12.61633  2.62500 -5.72236      0.019633926563
     -13.80043  1.69650 -1.33156      0.015134534500
     -14.87687  0.04238 -3.62105      0.014166418446
     -12.37661 -5.40004 -3.69954     -0.008779067375
     -8.67717  2.59392 -6.81536      0.031634077219
     -10.46044  2.95651 -6.56404      0.025397759577
     -13.97618 -2.21602 -6.05906      0.011906312141
     -14.45424 -0.63457 -5.52964      0.013915694811
     -12.19824 -4.84686 -5.65834      0.000559447037
     -11.07683 -4.11632 -7.13140      0.008580231127
     -11.57832  2.01508  0.54943      0.018544188472
     -12.23831  3.59872 -3.10876      0.022029048587
     -8.81996  3.75558 -5.08179      0.032712547278
     -14.05121  1.19418 -5.31195      0.015979444389
     -13.77746 -3.77208 -5.00075      0.007757410242
     -13.06492  0.64564 -6.95314      0.018881829858
     -12.60967 -2.94207 -7.12329      0.012245200769
     -8.69095  4.04424 -0.96596      0.030765787350
     -12.46611  2.84444 -0.90105      0.019727205348
     -10.45595  3.05723  0.40576      0.022697939828
     -7.91198  2.22847  0.34657      0.028877272571
     -10.84918  4.36247 -1.89725      0.025376115181
     -8.40351  4.14135 -3.41499      0.036649280765
     -10.10272 -1.06060 -8.92996      0.023472226696
     -8.90652  1.21799 -8.19215      0.029338178874
     -7.64120 -0.62381 -8.15193      0.029949786246
     -11.60378  0.34187 -8.32966      0.022714047219
     -9.28462 -2.91082 -8.17574      0.019850489835
     -9.51633 -1.30270  2.07066      0.011112922729
     -6.42810 -0.59296 -7.18127      0.033157951667
     -8.78020 -5.64367 -6.38521     -0.007094682915
     -6.68194 -2.89384 -7.57996      0.022307864480
     -7.11794 -4.87554 -7.05505      0.006622765555
     -4.38715 -7.23825 -3.89892     -0.014969472344
     -9.66546 -6.26250  1.85256     -0.037395450101
     -11.39741 -6.53545 -0.04645     -0.033359436683
     -9.37900 -8.48857 -0.08149     -0.042647209315
     -11.39741 -6.53545 -0.04645     -0.033359436683
     -12.03637 -5.85554 -2.72066     -0.020481521217
     -11.39741 -6.53545 -0.04645     -0.033359436683
     -10.80040 -8.01481 -2.16472     -0.036657392499
     -9.76850 -8.36950 -3.67862     -0.034353198960
     -5.99789 -7.84027  0.90952     -0.037997654328
     -7.43633 -8.91348 -0.23127     -0.042109479430
     -5.87639 -8.87034 -1.49429     -0.035180066988
     -11.03907 -6.45823 -4.51194     -0.022132819846
     -6.96144 -8.05286 -4.98410     -0.026300753847
     -9.05390 -7.62176 -5.19162     -0.026490703637
     -4.38715 -7.23825 -3.89892     -0.014969472344
     -5.44660 -6.20049 -5.68249     -0.005597680933
     -7.92311 -7.49177  1.64991     -0.045085648255
     -8.51939 -9.17020 -2.22015     -0.039131093477
     -6.70474 -8.94421 -3.32835     -0.033565146280
     -9.55118 -5.67650 -6.02783     -0.010043236581
     -7.63352 -6.36130 -6.23229     -0.012768203794
     -2.68452  5.01782  0.87246      0.008743044024
     -1.58312  5.26178 -0.98588      0.004403298072
      4.95006 -1.80455  1.70412      0.011235502096
     -7.62770 -0.09449  5.54204      0.006042326508
     -7.62770 -0.09449  5.54204      0.006042326508
     -8.58518 -2.51939  5.09073     -0.005799921204
     -7.54500  0.59005  3.00958      0.015470072668
     -7.62770 -0.09449  5.54204      0.006042326508
     -8.70415 -1.74860  3.25255      0.007331132574
     -6.06558  1.80774  3.76484      0.012599062957
      2.15556  0.02108 -7.34069      0.013377043702
     -4.22858  1.02685 -7.18116      0.035082113994
     -3.98886 -6.99819 -5.15834     -0.003879823104
      2.15556  0.02108 -7.34069      0.013377043702
      2.15556  0.02108 -7.34069      0.013377043702
      2.15556  0.02108 -7.34069      0.013377043702
     -0.33698 -0.66376 -9.38626      0.012291341991
     -3.05440  0.03967 -8.88159      0.021898943592
     -4.16144 -2.54950 -9.10679      0.017980338290
     -0.30096 -6.30467 -8.04471     -0.012244767978
     -2.54385 -3.52708 -9.66269      0.011219584731
     -0.59082 -2.96464 -9.78495      0.004395160747
     -2.26615 -7.61449 -4.99208     -0.007553967122
     -2.14852 -1.40318 -9.69947      0.014233774470
      1.12363 -2.19355 -9.16722     -0.000958899251
     -4.67716 -0.95252 -8.41194      0.023843746929
     -1.02682 -4.94633 -9.26004      0.000452766793
     -0.98582  6.06797  3.81960     -0.001903457516
      6.22777  2.99561  5.82673      0.011583261666
      1.13354  7.70531  4.04750      0.003737565525
     -0.98582  6.06797  3.81960     -0.001903457516
     -0.90312  6.75251  1.28714      0.000417468337
     -0.98582  6.06797  3.81960     -0.001903457516
      5.50356 -0.25728  4.41281      0.001821413366
      6.82555  0.95903  4.21414      0.004076449534
      6.73147 -0.06986  2.11881      0.002313633467
      1.23629  6.38655  5.70059      0.001425528986
      4.94247  0.93751  5.91691     -0.003780477024
      0.57630  7.97019  2.04241      0.000341993635
      0.69679  8.14653 -0.47957     -0.002768047055
      6.83359  0.21215  0.38309      0.000262972218
      8.33137  1.32416  0.35209     -0.003621829353
      2.17621  9.36421  0.27569     -0.005178140652
      4.20600 -6.19367 -6.38859     -0.022015737995
      2.78304 -4.90458 -0.44813      0.017390592565
     -0.78585 -7.44399 -2.57116     -0.013245205407
      2.59525 -6.79569 -1.58015     -0.008257795515
      4.21242 -5.93050 -2.21687     -0.003956625576
      1.15681 -7.86890 -2.72095     -0.020322074779
      2.71676 -7.82576 -3.98396     -0.023527305754
      4.38465 -6.63051 -4.12519     -0.016465337567
      2.78792 -0.43614 -7.19902      0.010342820305
      4.38464 -3.26211 -7.46158     -0.010026505325
      4.53568 -1.36282 -6.19378      0.010863077228
      2.99255 -2.01283 -8.23220     -0.005116160499
      1.63170 -7.00828 -7.47377     -0.024731592155
      4.20600 -6.19367 -6.38859     -0.022015737995
      3.14655 -5.15591 -8.17216     -0.021916830879
      1.94487 -3.62535 -8.93416     -0.013782436543
      0.07375 -8.12562 -4.70982     -0.022219876945
      1.88841 -7.89963 -5.81802     -0.026713381456
      5.29768 -3.87799 -5.85689     -0.005028878074
      0.95962 -5.31672 -8.72196     -0.016820256936
      0.52479  7.94348 -3.10463      0.001525238091
     -0.63435  5.60483 -2.86165      0.005714696570
      6.66160  0.00910 -2.24196      0.004177386369
      8.15938  1.12112 -2.27296     -0.002628962824
     -0.21172  4.92788 -4.77024      0.013536610962
      1.69333  4.61110 -6.88859      0.022077421302
      5.55381  0.85593 -5.82651      0.013552688188
      2.00422  9.16117 -2.34936     -0.004506056125
      0.19131  6.75662 -4.55255      0.008453926330
      5.59721 -0.21936 -3.78450      0.013992958691
      1.17761  6.20808 -6.19374      0.014846718219
      2.42838  9.10807  3.04303      0.002689203261
      9.64197  6.03572  5.05016      0.013565321036
      4.54774 10.74542  3.27093      0.003506153527
      2.42838  9.10807  3.04303      0.002689203261
      2.51108  9.79261  0.51057     -0.004785433328
      2.42838  9.10807  3.04303      0.002689203261
      8.91776  2.78283  3.63624      0.004073375120
     10.23975  3.99914  3.43757      0.003283049085
      8.64789  1.85823  1.37323     -0.002824183969
     10.14567  2.97025  1.34223     -0.003664793805
      4.65049  9.42666  4.92402      0.011197973585
      8.35667  3.97762  5.14033      0.011670990858
      3.99051 11.01030  1.26584     -0.003418097033
      9.15329  2.63677 -6.32913      0.009710072903
      4.62597 10.66975 -5.71846      0.010588441164
      2.10264  9.31798 -4.66262      0.002209382890
      3.20404  9.56194 -6.52095      0.011809421665
      8.23944  1.38360 -3.79995     -0.000688561156
      9.73723  2.49561 -3.83095     -0.001204814358
      5.35993  9.89345 -7.36263      0.028455776098
      4.37822  8.57476 -8.22138      0.027220692118
      1.36613  6.30237 -6.32823      0.015124004206
      5.52802  1.42608 -6.39713      0.015216553515
      7.13165  2.23043 -7.38450      0.015659366000
      4.74354  2.82062 -7.92999      0.023831688828
      9.15329  2.63677 -6.32913      0.009710072903
      8.42187  4.14601 -8.20304      0.027376171920
      3.58206 10.53566 -3.90735     -0.000204068256
      1.76916  8.13112 -6.11054      0.009609106323
      7.17506  1.15514 -5.34249      0.006522144461
      2.75545  7.58258 -7.75173      0.019530630963
      3.21070  3.99487 -7.92188      0.026283776469
      8.75051 12.42332  1.76332      0.008026783798
     12.65492  7.91196  1.67819      0.006442411870
      8.41957 10.84695  3.70981      0.013174041095
     11.22894  7.41529  3.51471      0.010338277064
      8.75051 12.42332  1.76332      0.008026783798
      6.13471 12.12499  1.73548      0.000627759707
     10.04517 12.54310 -0.63692      0.001052874390
      8.75051 12.42332  1.76332      0.008026783798
      7.65236 12.97401 -0.50504     -0.001682570401
      6.62137 12.52395 -2.08072     -0.005368504131
      4.09805 11.17218 -1.02488     -0.005899561368
     11.82672  5.37871  1.90212     -0.000051955597
     10.23485  3.23780 -0.16221     -0.006972618704
     11.73263  4.34981 -0.19321     -0.005077285744
     12.65492  7.91196  1.67819      0.006442411870
     12.65492  7.91196  1.67819      0.006442411870
     12.77350  6.04208 -0.10725     -0.002642880967
      5.57747 12.38987 -0.26961     -0.003737631436
     12.94890  7.96834 -1.71316     -0.007978448776
     10.94656  4.25306 -5.29650      0.007746175660
      3.89591 10.93427 -3.62999     -0.000500641607
      4.99731 11.17823 -5.48832      0.008755579951
     10.03271  2.99989 -2.76732     -0.004153587330
     11.53050  4.11190 -2.79832     -0.002654355110
     12.57137  5.80417 -2.71236     -0.005807291583
     10.94656  4.25306 -5.29650      0.007746175660
      5.37533 12.15195 -2.87472     -0.002765974480
     13.79528  8.94588 -3.30603     -0.012957758625
     12.62785  6.40858 -6.41445      0.008656158871
      9.32167 13.12940 -2.49235     -0.011127974134
     11.43232 12.62536 -2.59703     -0.013058066877
     11.91278 12.79986 -4.55346     -0.012104538363
      9.30858 13.57682 -4.29929     -0.010731683041
      5.98715 12.04651 -5.13176      0.003159895234
     12.80651  5.97174 -4.15104     -0.004744581599
     13.79528  8.94588 -3.30603     -0.012957758625
     13.24614 11.39520 -4.09993     -0.013417089748
     13.79528  8.94588 -3.30603     -0.012957758625
     11.20978 12.16612 -7.22488      0.007516545915
      8.94458 12.76962 -7.05264      0.008824438439
     12.80650  9.34014 -7.48743      0.012985091486
     12.95753 11.23943 -6.21964     -0.002703090752
     11.41441 10.58942 -8.25806      0.024813872529
      7.70119 11.68056 -7.81393      0.025954012099
     12.62785  6.40858 -6.41445      0.008656158871
     12.18279 11.08444 -1.52879     -0.007203107267
      7.56790 13.19434 -4.94562     -0.004535889044
     10.43685 13.25067 -5.79865     -0.005061203162
      6.09582 11.26001 -6.78964      0.019429305202
     13.71954  8.72427 -5.88275     -0.002976322007
     -3.79076  3.62241 -0.10292      0.021856608680
     -6.71254  1.67165  0.89360      0.022703548730
     -5.43328  0.43773 -6.95982      0.036713154379
     -4.19617  3.12901  5.48856     -0.005536835687
     -4.19617  3.12901  5.48856     -0.005536835687
     -4.11347  3.81355  2.95610      0.010983317912
     -4.19617  3.12901  5.48856     -0.005536835687
      2.29321 -3.19623  6.08177     -0.001997118232
      3.61520 -1.97992  5.88310     -0.004809015432
     -2.63405  5.03124  3.71137      0.001255839403
     -1.29576  3.36262 -4.31004      0.013196440894
     -2.80276  3.21792 -3.22428      0.028880000698
     -0.35198  1.04194 10.36096     -0.035574332486
      4.31051  0.73837  6.94971     -0.015717321468
     -0.35198  1.04194 10.36096     -0.035574332486
      0.74312  3.40608  9.44436     -0.031319617358
     -2.75152  1.92481  9.37649     -0.031208722676
     -2.13524 -0.82318  9.59277     -0.032950066637
     -0.35198  1.04194 10.36096     -0.035574332486
      1.72012 -0.50984  9.78175     -0.032687877411
      2.87484  0.96364  9.24758     -0.029682265556
     -0.16310  4.92190  7.76339     -0.024320598623
      1.94755  4.41785  7.65871     -0.017995316558
     -0.17619  5.36931  5.95645     -0.013912899611
     -3.25353  3.70191  7.46065     -0.022386129452
     -4.25755  1.47458  7.68203     -0.017416810759
     -3.25353  3.70191  7.46065     -0.022386129452
      1.53234 -2.40095  8.64973     -0.026691112374
      3.14951 -1.53576  8.01301     -0.022699979220
      3.32173 -2.23577  6.10470     -0.006289173580
      4.31051  0.73837  6.94971     -0.015717321468
      4.31051  0.73837  6.94971     -0.015717321468
     -1.35313  3.85661  8.96397     -0.030268032538
      2.69802  2.87693  8.72695     -0.025874460574
     -0.39288 -2.05244  9.39012     -0.032390927490
     -2.55564 -3.94724  9.37330     -0.027094542390
     -2.35452 -2.35210  8.58356     -0.023986151721
     -1.00149 -5.54727  9.24607     -0.022706896065
     -5.15655 -9.25476  2.05455     -0.033738787426
     -4.03515 -8.52422  0.58150     -0.020209732456
     -0.30280 -3.56657  8.55557     -0.020765290189
     -5.46506  1.71466  1.66292      0.019444871746
     -4.43322 -6.33836 10.27754     -0.042333049057
     -4.43322 -6.33836 10.27754     -0.042333049057
     -3.33813 -3.97422  9.36095     -0.030333317960
     -6.83276 -5.45549  9.29307     -0.043504760171
     -6.21648 -8.20349  9.50935     -0.047837137406
     -4.43322 -6.33836 10.27754     -0.042333049057
     -2.36113 -7.89014  9.69834     -0.036810926402
     -7.33477 -3.67839  7.37724     -0.029228851822
     -8.33880 -5.90572  7.59861     -0.044749489278
     -7.33477 -3.67839  7.37724     -0.029228851822
     -8.68875 -5.59353  5.40576     -0.039595110904
     -7.94843 -8.47643  7.61035     -0.049321989856
     -5.93002 -10.42955  7.57531     -0.047196402877
     -7.94843 -8.47643  7.61035     -0.049321989856
     -8.58739 -7.79652  4.93613     -0.047574423571
     -7.94843 -8.47643  7.61035     -0.049321989856
     -7.35142 -9.95579  5.49207     -0.047990589918
     -6.31952 -10.31048  3.97817     -0.043446564120
     -2.54891 -9.78125  8.56632     -0.036908068906
     -3.98735 -10.85446  7.42552     -0.040637804027
     -7.59009 -8.39921  3.14485     -0.046648720681
     -8.11975 -6.29757  3.29098     -0.040170223929
     -5.60492 -9.56274  2.46518     -0.037696294021
     -5.43438 -3.52369  8.88056     -0.029835644669
     -4.47413 -9.43275  9.30670     -0.045306649113
     -5.07041 -11.11118  5.43665     -0.040175884316
     -4.06483 -7.30610 -3.33813     -0.013330380788
     -4.14299 -7.75662 -1.14551     -0.018157487393
     -4.20690 -1.79557  8.90792     -0.015815198995
     -6.91013  0.16844  6.84284      0.002744805122
     -4.89997  0.38123  8.14966     -0.009262683886
     -6.48574 -1.81397  8.13771     -0.009098903597
     -5.29320  1.68646  5.84664      0.002583044227
     -2.25597  2.34826 -7.36588      0.027749083644
     -2.38817  2.74441 -5.02794      0.031735653474
      0.05750  2.52328 -6.54568      0.022125017495
     -0.34779  1.29445 -8.46691      0.020204902844
      3.30780  3.79747  7.46903     -0.007872682940
      2.61472  5.97427  6.71077      0.005149435525
      5.15870  5.14550  6.65157      0.016807519911
      5.09944  2.41866  6.62427      0.001916184269
      5.32475 -2.43890 -2.23375      0.019266561426
      5.49696 -2.23146 -4.66093      0.014266561070
      0.00037  3.08242 -5.32866      0.017158656863
      6.59771  6.60935  6.74102      0.017917279290
      5.90464  8.78615  5.98276      0.016109778942
      8.44861  7.95738  5.92356      0.017658971706
      8.38936  5.23054  5.89626      0.015356573975
      2.79616  5.51011 -8.08697      0.025042058741
      5.61641  5.50961 -9.70635      0.032225834738
      6.81260  7.78820 -8.96854      0.051289666793
      8.07792  5.94639 -8.92832      0.044981790613
      4.11535  6.91208 -9.10605      0.029104268500
      6.43451  3.65939 -8.95213      0.026641899181
     10.47815 12.21244  1.83326      0.011118710016
     12.68324  9.06045  1.79629      0.009637694921
     11.25713 10.39667  3.14578      0.014286068954
     12.33230 11.17128  0.58107      0.008065956321
     10.76560 12.30955 -0.61578      0.001675633129
      8.15760 11.71427 -7.99175      0.026853953632
     11.46356  6.49723 -7.84896      0.029797748494
      8.86958  8.38187 -9.83059      0.046828041897
     10.06578 10.66046 -9.09278      0.034548764482
     11.33109  8.81865 -9.05256      0.035071295116
      7.36852  9.78434 -9.23029      0.043595842190
      9.68768  6.53165 -9.07636      0.044313714925
     -4.21162  3.72011 -1.66348      0.034255795658
     -6.23764  3.64219 -4.93272      0.046552579156
     -6.36984  4.03834 -2.59478      0.043834931105
     -3.92417  3.81722 -4.11252      0.040343395845
     -4.32946  2.58838 -6.03375      0.043699540400
     -8.91147 -3.09230  2.93373     -0.002657991757
     -5.54613 -4.05705 -7.97496      0.016688305626
     -3.36202 -6.79683 -7.78203      0.003745066101
     -2.72588 -4.05756 -9.59434      0.010781317713
     -3.44018 -7.24735 -5.58941     -0.002495580080
     -5.26278 -5.92315 -6.98176      0.005422286210
     -1.90778 -5.90777 -8.84012      0.002683445768
      3.09835 -3.78890  5.42432      0.010973842615
      1.87617 -4.48225  7.29648     -0.006787676085
     -0.38283 -8.04722 -0.64780     -0.008739216334
      4.15042 -4.76350  1.90788      0.029589350149
      2.92060 -4.79247  0.04198      0.025164612706
      5.15581 -8.51182  6.57035      0.005469356159
      4.08447 -6.01340  1.84942      0.026957621548
      0.92046 -5.57683  8.60197     -0.009425709724
     -2.22078 -10.06348  8.57339     -0.030652315167
      3.29943 -5.36764  7.30210      0.000656971022
      4.57153 -6.01638  6.19919      0.006805018722
      4.04359 -4.88980  4.67819      0.018284178936
      0.75509 -13.27980  6.51519     -0.001026755622
      3.00563 -12.26139  6.99295      0.002662925941
      4.32762 -11.04507  6.79428      0.004491396562
      0.75509 -13.27980  6.51519     -0.001026755622
      0.75509 -13.27980  6.51519     -0.001026755622
      2.73575 -13.18598  4.72995      0.003579224332
      4.23353 -12.07397  4.69895      0.006189577281
      5.15581 -8.51182  6.57035      0.005469356159
      5.32756 -6.89421  4.39351      0.012082676153
      5.15581 -8.51182  6.57035      0.005469356159
      5.27440 -10.38170  4.78491      0.007933765435
      4.08447 -6.01340  1.84942      0.026957621548
      4.08447 -6.01340  1.84942      0.026957621548
      4.08447 -6.01340  1.84942      0.026957621548
     -3.65951 -9.84866  1.67224     -0.019078317875
      0.02432 -13.14350  2.13277     -0.000631348763
      1.62796 -12.33916  1.14540      0.001879812399
     -0.76016 -11.74896  0.59991     -0.004613945440
     -0.61493 -9.56157 -0.47258     -0.007872803854
      1.33810 -8.99913 -0.59484     -0.001702643450
     -0.52536 -11.93434  8.21868     -0.009068378876
     -0.33723 -13.64897  4.19802     -0.000212668610
      1.67136 -13.41444  3.18741      0.002256332992
     -2.29300 -10.57471  0.60802     -0.010491807341
      0.90209 -10.98082 -0.06994     -0.001457153275
     -3.58985 -12.04465  5.76544     -0.021073768971
     -3.99716 -10.30276  2.29760     -0.021730224101
     -1.81305 -13.04253  2.49052     -0.003604451938
     -1.89121 -13.49305  4.68314     -0.004484162785
     -3.71381 -12.16886  3.29080     -0.013719999111
      4.43877 -11.26373  1.61676      0.008848122756
      4.89032 -11.27991  3.70872      0.008860268596
      5.53613 -8.91333  2.27906      0.012514356955
      4.30631 -8.94231  0.41316      0.010396250863
      2.66289 -11.22931  0.38936      0.004722919357
      1.15583 -8.57584 10.02836     -0.005302243090
      4.43284 -8.56403  7.86141      0.004324404383
      0.46276 -6.39904  9.27010     -0.011163528323
      3.00673 -7.22780  9.21090     -0.000171542217
      0.50299 -10.76613  9.18654     -0.005820740206
      2.94747 -9.95464  9.18360      0.001657221584
     -14.80752 -4.05162 -1.48880      0.003477108632
     -13.54810 -3.57824  0.47978     -0.000122531613
     -15.29056 -1.62476 -1.12366      0.009640831028
     -13.10583 -5.64763 -2.06931     -0.010030474665
     -14.84529 -3.93888 -3.91455      0.006196794840
     -14.80752 -4.05162 -1.48880      0.003477108632
     -13.96945  2.14704 -0.65938      0.013297177394
     -11.44690  3.98470 -5.83641      0.020832529599
     -15.01401 -0.91895 -5.86832      0.011709074212
     -11.42294 -5.87089 -5.86562     -0.006737095552
     -10.93571  2.40390  1.30777      0.016729332862
     -13.28755 -0.80553  1.36677      0.007062237209
     -8.10926  4.47607 -4.28610      0.033425625686
     -15.51220 -0.91527 -2.12983      0.011203951568
     -14.42797  2.43025 -4.29009      0.014587323954
     -14.44906 -4.29030 -4.30601      0.004861199768
     -8.74899  2.44789 -7.82817      0.027549171077
     -12.68324  1.17881 -7.84449      0.018511138978
     -12.72357 -2.97873 -7.86190      0.011263408251
     -10.41116  0.79784  2.20690      0.012970787621
     -11.58033 -0.82149  2.23751      0.006406007309
     -7.66316  2.83555  0.51411      0.026130571374
     -12.70482  2.23672  0.61175      0.014060472973
     -13.93837  0.75273  0.43663      0.010620789159
     -12.99587  3.42121 -1.17273      0.016926699924
     -14.95623  0.71878 -1.14732      0.011519663348
     -14.56871  2.25309 -2.33800      0.013653478387
     -12.73365 -4.30411  0.44061     -0.007294333665
     -6.96648  2.45046 -6.96648      0.035630287996
     -11.69001  4.45583 -4.19553      0.020942654255
     -9.87316  4.47122 -5.29730      0.025192453277
     -13.03579  3.41062 -5.34268      0.017506260779
     -10.29517  3.42852 -7.03080      0.023451589880
     -12.16955  2.82588 -6.99174      0.019376969777
     -15.54693 -1.13799 -4.21803      0.011183936736
     -15.06012  0.66279 -5.18646      0.012950070419
     -15.00315 -2.60694 -5.29493      0.009302680839
     -14.12633 -0.05024 -7.05871      0.014227614024
     -14.17627 -2.08940 -6.93346      0.011035378221
     -13.00444 -5.34835 -5.29705     -0.001439613734
     -12.14791 -4.73499 -6.98955      0.003876561077
     -10.21549 -5.32475 -7.03659      0.000227599339
     -12.48348 -2.50905  1.62547      0.000584834642
     -14.60381 -1.05149  0.00593      0.009087307667
     -13.10458  3.82268 -3.02700      0.017607272859
     -8.25863  3.85818 -6.07594      0.030732271498
     -15.42024  0.58522 -3.21655      0.012170793361
     -14.07007  1.83021 -6.08266      0.015276997155
     -13.08150 -5.73567 -3.10918     -0.008324610639
     -13.90663 -3.95247 -6.08853      0.006093664137
     -7.55915  1.03025 -8.20705      0.029675008654
     -12.87784 -0.68726 -8.19334      0.016603947977
     -11.02833 -3.77157 -8.18189      0.010894020418
     -8.85896  4.63615 -1.03054      0.026730217661
     -8.92187  2.92003  0.99067      0.022245609676
     -8.85896  4.63615 -1.03054      0.026730217661
     -8.85896  4.63615 -1.03054      0.026730217661
     -8.85896  4.63615 -1.03054      0.026730217661
     -10.12489  4.87759 -3.46600      0.025502735985
     -9.60373 -1.49732 -9.32306      0.020398152097
     -8.46777  1.72200 -8.22325      0.028027604609
     -12.15588  0.98514 -8.24255      0.019797930963
     -10.18726  0.37954 -9.22856      0.022313487111
     -6.45850 -5.82356 -7.11695      0.001164684201
     -7.01198 -4.14980 -8.03926      0.013006353533
     -8.73169 -5.29892 -7.43570      0.002190090495
     -4.45985 -8.03094 -4.22494     -0.015824058836
     -11.23120 -4.21092  1.75259     -0.014994057452
     -10.29573 -6.26318  2.18989     -0.031209212020
     -11.81216 -6.70199  0.35286     -0.027208184654
     -9.95892 -8.79178  0.13759     -0.035976864955
     -11.81216 -6.70199  0.35286     -0.027208184654
     -12.48055 -6.49701 -2.36364     -0.019375826553
     -11.81216 -6.70199  0.35286     -0.027208184654
     -11.35409 -8.26319 -1.58275     -0.030292082233
     -10.13520 -9.16963 -2.51474     -0.031400329410
     -7.34472 -9.39403  0.09683     -0.036765818495
     -7.34472 -9.39403  0.09683     -0.036765818495
     -7.34472 -9.39403  0.09683     -0.036765818495
     -5.36547 -9.28546 -1.68631     -0.027791126836
     -9.91059 -8.61296 -4.42669     -0.025908518789
     -8.04182 -9.25956 -4.29731     -0.026988390900
     -6.47620 -8.43551 -5.29149     -0.020084203013
     -8.86505 -7.82041 -5.87548     -0.018958083246
     -4.45985 -8.03094 -4.22494     -0.015824058836
     -8.59088 -8.05066  1.83119     -0.040992467934
     -8.43859 -9.76861 -2.19729     -0.032716005934
     -11.48050 -7.64129 -3.77526     -0.023555865951
     -6.42329 -9.51908 -3.22878     -0.027863412295
     -10.45766 -6.66596 -5.82347     -0.013992116331
     -7.18521 -7.07360 -6.51063     -0.011479096597
      5.35264 -1.37712 -1.12734      0.012134874306
     -3.39477  5.06704  0.44639      0.012445774935
      5.76608 -1.65581  2.59540      0.007505508393
     -1.96266  6.05799  3.56375     -0.000217671207
     -2.00259  6.04740 -0.60620      0.006266518939
      5.93338 -1.47611  0.51036      0.007375556881
     -2.07137  6.45946  1.70948      0.003180650008
      4.80277 -2.82367  1.51291      0.017365923329
     -7.79672  0.35606  6.21422      0.002685361358
     -7.11483 -2.59651  8.24037     -0.017109210239
     -9.33947 -2.70626  4.74376     -0.007269953862
     -8.25524  0.63927  2.58351      0.015873445934
     -5.40760 -2.61248  9.11111     -0.019863602328
     -7.76564 -1.03826  7.31023     -0.004290660009
     -6.82314  1.63022  5.70087      0.004792240293
     -8.78350 -1.07220  5.72628     -0.001012821977
     -8.39598  0.46211  4.53560      0.007382729485
     -8.43108 -2.84248  6.87953     -0.015345055806
     -6.93185  2.03169  3.84660      0.011081989147
     -9.24751 -1.20577  3.65705      0.005162251363
     -9.21342 -4.37310  3.83280     -0.018829210263
      2.72227  0.49616 -7.32883      0.015422960694
     -1.46033 -2.56175 -10.51833      0.008256723072
     -0.36123  0.84974 -9.28697      0.016731975753
     -4.29548 -0.41934 -9.30329      0.020720327267
     -0.36738 -5.89436 -9.32195     -0.005497968311
      1.42127  0.85231 -8.42528      0.015511012346
      2.59677 -0.82487 -8.48371      0.005234427334
     -3.78180  1.22773 -8.45054      0.025945339991
     -5.73858 -1.64839 -8.51751      0.022634027354
     -3.24777 -7.96060 -5.68566     -0.006242082345
     -1.47065 -7.96401 -6.75377     -0.009026209071
     -1.82774 -6.92290 -8.49539     -0.001764117566
     -0.93153 -0.93092 -10.26361      0.011378611492
      0.26694 -2.53302 -10.25542      0.003210296114
     -2.85310 -1.51953 -10.25277      0.013936115396
     -2.86286 -3.55209 -10.25368      0.010058170836
     -0.92086 -4.22060 -10.24425      0.002470298370
     -1.65546 -8.32250 -4.59722     -0.011804860977
      0.82861 -0.56790 -9.66585      0.009275516083
     -2.14549  0.37347 -9.68012      0.017809933314
      1.11060 -4.08969 -9.68149     -0.007111199070
     -4.49009 -2.28541 -9.65214      0.016453508852
     -1.15484  6.51851  4.49179     -0.002782039690
      1.87890  6.77537  6.45894      0.002406160746
      5.76713  1.39159  6.50890     -0.000831300420
      1.22180  8.79990  3.09412      0.001997715446
     -1.61336  6.80172  0.86108      0.002767325954
      7.54748  0.07887  3.01008      0.002633327284
      0.10979  6.60819  5.76291     -0.004058922657
     -0.18125  7.79268  3.97843      0.000671787812
     -1.75410  6.62456  2.81317      0.001069267468
      5.26996 -0.34434  5.60821     -0.002583075192
      6.15568 -0.91991  3.97521      0.003555903979
      7.22533  2.56671  5.69436      0.007706752914
      6.20838 -0.93600 -0.10968      0.005481978135
      6.92139  0.75950  5.14853      0.002828995979
     -0.28996  8.19415  2.12416      0.000849915284
      6.58418 -1.08898  1.92760      0.004629580647
     -0.01345  8.19574 -0.90564      0.000048388087
      9.31469  1.65260 -0.84167     -0.004043863007
      1.30994  9.58817  0.35745     -0.002197067569
      8.18409  0.30504  0.16089     -0.000439088336
      4.58010 -1.06457 -7.07645      0.007613218804
      4.13330 -6.98636 -6.71461     -0.018208285074
      4.22248 -4.14658 -0.50102      0.017424753014
      1.24842 -8.34945 -2.39284     -0.014231466091
      3.49504 -7.31783 -1.91046     -0.006316658424
      4.81817 -6.10312 -2.12091     -0.000833713172
      1.24842 -8.34945 -2.39284     -0.014231466091
      1.24842 -8.34945 -2.39284     -0.014231466091
      3.22768 -8.24088 -4.17598     -0.017506303840
      4.72009 -7.12584 -4.21398     -0.012732366036
      5.75960 -5.43423 -4.13043     -0.004092862446
      5.52603 -5.35489 -6.06031     -0.009921839873
      4.58010 -1.06457 -7.07645      0.007613218804
      4.58010 -1.06457 -7.07645      0.007613218804
      4.91163 -4.21484 -7.69519     -0.009934244230
      4.58010 -1.06457 -7.07645      0.007613218804
      0.55132 -8.21498 -6.78698     -0.017850966874
      2.11695 -7.39093 -7.78117     -0.019291155823
      4.13330 -6.98636 -6.71461     -0.018208285074
      3.40639 -5.47154 -8.59442     -0.016080002897
      1.82056 -4.03143 -9.52800     -0.009532392176
      2.92518 -6.13230 -0.39900      0.010714078983
      0.15456 -8.72403 -4.68696     -0.017938947090
      2.16985 -8.47450 -5.71845     -0.020487231219
      5.93559 -3.51199 -5.74082      0.000236066926
      3.54291 -3.28063 -8.90040     -0.008497658501
      1.40794 -6.02902 -9.00031     -0.014593001381
     -0.77149  4.64349 -5.10892      0.015740857773
     -0.18545  7.99270 -3.53069      0.005033376411
      8.97539  1.26985 -1.38168     -0.003145990909
      6.15270 -0.79664 -3.55023      0.011872228767
      1.51895  2.58372 -7.10250      0.021858440215
     -0.32618  7.81554 -1.57860      0.001715981759
      6.24041 -0.79006 -1.61091      0.007581484944
     -0.81759  6.22523 -4.42706      0.011215092178
      0.11619  5.51221 -6.29931      0.016441691902
      0.06626  3.47305 -6.17407      0.020164127130
      4.02703  0.23770 -6.27719      0.017274911064
      7.63630  0.25498 -4.50144      0.004949487473
      1.13795  9.38512 -2.26760     -0.001112440799
     -1.17772  6.14766 -2.45715      0.006653927243
      0.17245  7.39266 -5.32326      0.009775100192
      8.01209  0.10199 -2.46417      0.001550781879
      6.04414 -0.15236 -5.34504      0.011284054926
      1.36468  4.87519 -7.43394      0.020472765662
      3.21420  1.79088 -7.42249      0.019994099515
      2.25937  9.55862  3.71521      0.003344746562
      5.29310  9.81547  5.68237      0.010566312974
      9.09514  8.59099  5.74169      0.014598333192
      9.18133  4.43169  5.73232      0.009644075643
      4.63600 11.84001  2.31754      0.000628548941
     10.96168  3.11898  2.23351     -0.000555431143
      6.70542 10.80452  4.90562      0.009929218700
      8.56566 10.24713  4.88870      0.013228888952
      3.52399  9.64830  4.98634      0.006960363013
      3.23295 10.83278  3.20186      0.002089495887
      1.66011  9.66467  2.03659     -0.000141441186
      8.68416  2.69577  4.83164      0.006101082777
      9.56988  2.12020  3.19863      0.001764555780
     10.72389  7.59789  4.74735      0.011587308012
     10.63953  5.60682  4.91778      0.008323602399
     11.57306  4.85876  3.08107      0.002505303874
      9.62259  2.10411 -0.88625     -0.004868215199
      7.06172  3.58181  6.06427      0.011622608835
     10.33559  3.79961  4.37196      0.004866539460
      3.12424 11.23425  1.34759     -0.001665225791
      9.99838  1.95112  1.15103     -0.002244137479
      4.37347 10.92164 -6.63500      0.013758089854
     10.13980  2.92304 -6.66241      0.011211275379
      1.39240  9.36720 -5.08868      0.005334152127
      7.73054  0.57785 -5.10822      0.005550216433
      3.13713  8.11575 -8.64308      0.021091894802
      3.09680  3.95822 -8.66049      0.023516492264
      7.06524  2.64073 -8.66174      0.019367823220
      2.78458 10.34756 -6.14127      0.008928941158
      5.52520 10.36547 -7.82940      0.027309351933
      3.65082  9.76282 -7.79033      0.017931611124
      0.76026  7.59973 -5.98505      0.010702451773
      1.69404  6.88670 -7.85730      0.017774082859
      1.64410  4.84754 -7.73206      0.021103497882
      3.67246  2.20195 -7.78814      0.020689692828
      5.60488  1.61220 -7.83519      0.016408411152
     10.72055  2.82405 -5.02472      0.004377851498
      9.21414  1.62947 -6.05944      0.006928723195
     10.15389  4.36075 -7.72608      0.022475534220
      8.90115  2.80389 -7.91330      0.016255139021
      2.71580 10.75962 -3.82560      0.000892419017
      1.75030  8.76716 -6.88126      0.011905925941
      9.58994  1.47649 -4.02216      0.000859797509
      7.62199  1.22213 -6.90303      0.010386316096
      5.28712  8.90857 -9.01991      0.031858046290
      8.54322  4.44541 -9.02128      0.028191229241
      2.94253  6.24968 -8.99193      0.023486359211
      9.50847 12.76439  2.18268      0.008025137341
     13.14073  7.82347  2.15304      0.005339329638
     10.68210  9.97055  4.20624      0.012855009261
      6.22296 13.21957  0.78210     -0.000167666656
      9.70651 13.26721 -1.44696     -0.004605435966
      3.38780 11.22140 -1.45095     -0.003768885863
     12.54864  4.49855  0.69806     -0.002004753275
     13.66124  7.82381 -1.46744     -0.004903568669
      8.29238 12.18408  3.37017      0.008189612256
      7.92293 13.22371  1.68289      0.003770494265
      9.73631 13.26997  0.50242      0.003848936686
      4.81991 12.21235  1.66641     -0.000493084396
     12.31085  8.97745  3.21190      0.009955482397
     12.22649  6.98638  3.38234      0.006382185426
     13.16002  6.23832  1.54563      0.001339567045
     13.67841  8.03391  0.47259      0.001762355888
      6.12577 13.24697 -1.35638     -0.002729891939
     12.71595  4.67825 -1.38698     -0.003354971333
     10.97548  8.13464  4.49444      0.011614492786
     11.92255  5.17918  2.83651      0.002280384728
      7.73949 13.61966 -0.26638     -0.000550627087
      4.71120 12.61382 -0.18786     -0.002495729269
     13.38928  9.86090 -0.31611      0.001122733227
     11.58534  3.33069 -0.38442     -0.003811580248
     13.42628  5.94435 -0.17432     -0.001770156564
     11.93307  4.53933 -5.62978      0.007178075318
     12.34651  4.26063 -1.90704     -0.003189487056
      3.04493 10.80632 -2.10396     -0.003259680591
      5.92363 13.00906 -3.96149     -0.001210916797
      4.57785 11.96385 -5.10864      0.005226416056
     12.51381  4.44034 -3.99209      0.000175470595
     11.00741  3.24576 -5.02681      0.004767533354
      4.50907 12.37591 -2.79297     -0.001246739477
     11.38321  3.09278 -2.98953     -0.001223486796
     13.22415  5.70644 -2.77943     -0.004348006616
     10.24725 13.57647 -2.27662     -0.007696924428
     14.07075  9.04040 -2.36644     -0.008098414417
     13.00196 11.53768 -7.10231      0.003663763336
     12.55515  5.61589 -6.74047      0.011191635768
     10.24725 13.57647 -2.27662     -0.007696924428
      7.65265 13.34753 -2.28430     -0.005839038002
     12.26156 12.15430 -1.61122     -0.006077722850
     13.50721 11.53967 -2.76483     -0.009326355264
     11.49040 13.68593 -4.71271     -0.007260496253
     12.97498 12.66690 -4.26889     -0.008628656512
     10.24725 13.57647 -2.27662     -0.007696924428
      9.16003 14.15040 -4.58018     -0.005792902628
      8.06454 13.70735 -6.14266      0.001985646114
      6.61936 12.62134 -6.93577      0.011412742441
     13.14195  5.47642 -4.23983     -0.001740803426
     14.07075  9.04040 -2.36644     -0.008098414417
     14.24628 10.64799 -4.55845     -0.007660341117
     14.07075  9.04040 -2.36644     -0.008098414417
     14.18145  7.16802 -4.15629     -0.005441140121
     13.94789  7.24737 -6.08616      0.001808496597
     13.00196 11.53768 -7.10231      0.003663763336
     10.56211 12.50502 -8.06571      0.012902681929
      8.79367 12.92136 -7.78278      0.012854718148
     13.00196 11.53768 -7.10231      0.003663763336
     13.33349  8.38741 -7.72105      0.012019082420
     13.00196 11.53768 -7.10231      0.003663763336
     10.53880  5.21132 -7.80703      0.027962609169
     12.55515  5.61589 -6.74047      0.011191635768
      7.11012 13.63844 -4.25288     -0.003372598035
     10.44635 13.68554 -6.33115     -0.000236893385
     14.35745  9.09027 -5.76668     -0.002437757363
     -4.65703  3.84636 -0.02116      0.023725131426
     -6.78050  3.40212 -0.38612      0.031310556569
     -6.71291  1.83295  1.54067      0.020169702708
     -5.73692  0.22164 -7.62789      0.031586441655
     -1.98855  5.86094  4.76308     -0.004756573014
     -4.82371  3.86277  2.53004      0.012682562017
      4.33713 -2.86008  4.67905      0.010657643758
     -3.39160  4.85372  5.64739     -0.008088791079
     -4.96445  3.68560  4.48213      0.003736057439
      4.94851 -1.12031  5.52661     -0.001896288841
     -3.50031  5.25519  3.79312      0.002369062741
     -3.29842  4.47375 -1.31549      0.018687458400
     -2.33363  4.51186 -3.27917      0.016826014443
     -1.18146  3.57792 -4.96475      0.017455012806
     -0.51374 -0.45306 10.78536     -0.029661547721
      0.76247  5.36896  7.97912     -0.016284759391
     -3.90965  3.51179  8.01241     -0.017959828663
      4.58597  0.83289  7.88930     -0.014587501394
     -0.51374 -0.45306 10.78536     -0.029661547721
      0.13158  2.17328 10.74917     -0.028216361623
      0.51177  3.76035  9.95130     -0.025120447681
     -2.08518  1.93966 10.42240     -0.027695062009
     -3.70097  1.22840  9.49279     -0.023261871805
     -2.76551 -0.82385  9.93009     -0.026806255969
     -0.51374 -0.45306 10.78536     -0.029661547721
      1.70871  0.59819 10.60573     -0.027493137985
      3.15956  0.24816  9.72886     -0.023780196964
      0.76247  5.36896  7.97912     -0.016284759391
     -1.83212  5.14003  7.97144     -0.019354479954
      2.77678  3.94679  8.64452     -0.016086554658
      0.76247  5.36896  7.97912     -0.016284759391
     -3.90965  3.51179  8.01241     -0.017959828663
     -3.90965  3.51179  8.01241     -0.017959828663
      2.43213 -2.92308  8.31942     -0.017196767936
      3.75525 -1.70838  8.10897     -0.016414946993
      4.58597  0.83289  7.88930     -0.014587501394
      4.58597  0.83289  7.88930     -0.014587501394
     -1.63913  3.77598  9.71136     -0.025229739833
      2.45858  2.50533  9.90446     -0.023880885833
     -1.06065 -2.61133  9.57140     -0.027004206129
      1.86227 -1.73756  9.83088     -0.025090253258
     -2.37465  5.43093  6.00286     -0.011338279638
     -0.09199 -3.22850  9.07999     -0.023503719260
     -3.36947 -3.61007  9.91980     -0.026952078577
     -1.47542 -4.23485  9.95146     -0.023623147807
     -5.10623 -9.14290  0.72334     -0.027948563102
      0.20139 -5.06441  9.36819     -0.015907874278
     -3.98664 -8.17947 -0.46899     -0.018170003790
     -4.59499 -7.83336 10.70194     -0.037224402828
     -7.99090 -3.86852  7.92900     -0.028065494155
     -4.59499 -7.83336 10.70194     -0.037224402828
     -3.94967 -5.20703 10.66576     -0.032718528066
     -6.16643 -5.44065 10.33899     -0.035919718288
     -7.78222 -6.15190  9.40938     -0.038229722691
     -6.84675 -8.20416  9.84668     -0.040330880552
     -4.59499 -7.83336 10.70194     -0.037224402828
     -2.37254 -6.78212 10.52231     -0.030552499971
     -7.99090 -3.86852  7.92900     -0.028065494155
     -9.12911 -6.25832  7.26292     -0.037685064545
     -7.99090 -3.86852  7.92900     -0.028065494155
     -9.05343 -4.79068  5.51642     -0.028646188370
     -9.34483 -6.62902  5.05342     -0.037339516921
     -8.36318 -8.64297  8.00965     -0.041432481556
     -6.50994 -10.73276  7.79439     -0.039970697542
     -8.36318 -8.64297  8.00965     -0.041432481556
[...]
      3.08679 11.83564  2.34743      0.000618287841
      4.33566 12.34713  2.67319      0.001439683873
      2.15551 10.73542 -1.17423     -0.002400994694
     11.85497  3.47431  2.64974      0.000676620749
     11.05227  2.36522  2.73598      0.000652557448
      4.10041 11.59809 -6.58856      0.011050534044
     10.83130  2.45740 -6.36140      0.008226653343
      1.50454 10.51985 -3.19732      0.001116942400
      2.07780 11.03298 -4.88610      0.004754301156
     10.51159  1.44392 -4.27472      0.002137510770
      4.10041 11.59809 -6.58856      0.011050534044
      2.57830 10.09948 -7.66055      0.013509805511
      4.38751 10.85307 -7.96280      0.017953064781
      4.27468  9.87460 -8.90244      0.021631805839
      0.64015  6.37637 -7.63425      0.016648486820
      1.40226  5.93302 -8.58799      0.018898211949
      2.25677  5.37823 -9.27910      0.020771986940
      3.37789  5.01626 -9.87080      0.022487704078
      5.76663  0.34158 -7.13044      0.011808201598
      4.47303  1.91815 -8.81297      0.017495620988
      4.92085  3.43184 -9.87422      0.021453805563
     10.83130  2.45740 -6.36140      0.008226653343
     10.24795  2.73416 -7.60098      0.012910285096
      9.84835  3.34870 -8.46960      0.017672949155
      9.08514  4.02145 -9.34222      0.022939331386
      0.29392  7.64442 -6.57798      0.012448036614
      1.01049  9.06635 -6.75228      0.010833434570
      1.74707 10.26078 -6.34742      0.008958477174
     10.64383  1.89058 -2.43720     -0.001509894282
      9.11145  0.59705 -5.61309      0.005322371331
      5.90149  7.93267 -10.19950      0.031559043961
      7.64433  5.90549 -10.27962      0.031946128882
      8.91102  5.21643 -9.73835      0.029931108733
     10.50097  4.59300 -8.41744      0.022963494416
      2.83964  7.13133 -9.56595      0.021018702144
      3.69173  8.25453 -9.63771      0.022467888232
      3.55545  3.49858 -9.48079      0.020974317762
      7.65283  3.51168 -9.76121      0.021708582881
      8.66183  2.29983 -8.59757      0.015152796665
      6.32207  3.24695 -9.87531      0.021113581604
      7.51207  1.74780 -8.64988      0.014524165380
      6.18684  1.77609 -8.92112      0.015982714696
      8.92241 10.68457  5.24628      0.010844835340
      9.35471 11.70559  4.50761      0.009319379960
     11.20725  8.00887  5.11029      0.009785435747
      9.27122 13.46379  2.39277      0.005659711662
      6.77969 13.30954  2.72332      0.003404683121
      9.27122 13.46379  2.39277      0.005659711662
     10.68723 12.66182  2.83257      0.008083681592
      9.27122 13.46379  2.39277      0.005659711662
     10.61725 13.51053  1.03633      0.004438367634
     11.59223 13.14557 -0.18203      0.001408184684
      8.18487 14.23054  0.23412      0.000843031422
      7.35835 14.21887 -0.95809     -0.001328426712
      3.49994 12.37405  0.44042     -0.001374938108
      4.07320 12.88718 -1.24836     -0.001438214906
     12.68651  5.25383  3.07444      0.002577377876
     12.50700  3.29812 -0.63698     -0.002126907311
     13.75555  7.92055  2.35788      0.004396008093
     14.28267  7.19920  0.57686      0.000716192605
      7.71769 12.46645  4.01781      0.006696155087
     12.19877 10.26895  3.74898      0.009322039784
     11.94243  9.22104  4.42165      0.009275915370
     10.63359 10.05818  4.97430      0.010673192044
     12.90629  6.73330  3.52338      0.004849192088
     11.93302  6.56966  4.45706      0.006690369515
      4.67375 13.21521  0.81198     -0.000454808094
      5.92263 13.72669  1.13774      0.000623097662
     13.09112 11.68559 -0.99599     -0.002178179427
     13.74615 10.64532 -0.14674      0.001141501512
     13.86538  9.78387  1.22865      0.004455261587
      9.85141 13.97633 -0.81744     -0.001169795166
     13.99670  5.88010  0.61847     -0.000110748641
     13.44193  4.85387  1.11429     -0.000264757901
     12.63923  3.74478  1.20053     -0.000945534452
     14.32215  8.48349 -1.17089     -0.002936147620
     12.62457  4.07369 -5.32877      0.004574608532
      3.29781 12.13614 -2.16469     -0.000964690673
      3.87107 12.64927 -3.85347      0.001836356047
     11.18424  2.28460 -1.90439     -0.002032168819
     12.30486  3.06021 -3.24209      0.000072737506
      4.37157 11.71577 -6.62792      0.011386262007
     12.62457  4.07369 -5.32877      0.004574608532
     12.04122  4.35045 -6.56835      0.010636470584
      3.54034 11.87707 -5.31479      0.005893109567
     10.87645 13.87157 -1.87101     -0.004704904081
     14.48602  8.96146 -1.90119     -0.004940464486
     13.50273 12.00409 -7.05705      0.002484244347
      7.75698 13.88174 -7.02304      0.006593145555
     13.48095  5.93330 -7.05441      0.008809846235
      7.61123 14.32312 -3.26337     -0.003546069587
     13.89514 12.30895 -3.33451     -0.006396678600
     11.07446 14.37232 -5.48124     -0.002565068994
     13.89631  5.65698 -3.34921     -0.002738545876
     15.00405  8.96140 -5.50274     -0.001813004668
     10.43678 12.35114 -9.00449      0.016343437490
     12.85191  9.01442 -9.03282      0.017773401124
      9.30081 14.32769 -2.36780     -0.004793330032
     12.46122 13.34758 -2.40481     -0.005872154588
     11.10379 14.37508 -3.54215     -0.005730889568
     14.45516 10.64924 -2.43220     -0.005929078839
     14.50490  7.38603 -2.50563     -0.004763471116
     15.02148  9.17074 -3.57267     -0.005476320382
     13.90787 12.35630 -5.41267     -0.003407366838
     12.55184 13.33830 -6.42868     -0.000117770744
     14.47308 10.72667 -6.41096      0.000183849842
     12.20900 12.35666 -8.14746      0.008619130235
     13.37608 10.68942 -8.20588      0.009410975431
      7.51515 14.35092 -5.39073      0.000475046637
      9.32101 14.36656 -6.48691      0.002061975896
      6.17811 13.31051 -6.53178      0.007381988217
      8.90138 13.32758 -8.21123      0.011945081895
      7.03921 12.72705 -8.17237      0.015667201556
     14.06187  5.83524 -5.42430      0.001626858606
     12.55986  4.64938 -6.45616      0.008948140123
     14.45328  7.35040 -6.55222      0.003640384644
     13.49428  7.36017 -8.11104      0.012776251272
     12.23929  5.81475 -8.30067      0.018795386240
     13.12789 11.82172 -1.20781     -0.003123558241
      9.11894 14.72218 -4.30660     -0.003719814273
      6.10919 13.72039 -4.22739     -0.000304297262
     12.86981 13.52277 -4.30573     -0.005531696624
     14.73475 10.98681 -4.35704     -0.005288784435
     10.92570 13.75703 -7.26142      0.004161324181
      5.15158 11.73703 -7.26836      0.015235613561
     14.76981  7.09357 -4.21674     -0.003121551426
     14.36526  9.19682 -7.27411      0.005026072107
     11.61665 10.94068 -9.38137      0.019561576534
     -4.69448  4.44775  0.97868      0.016754749953
     -4.71157  5.01542  4.42140      0.002136247551
     -4.13831  5.52855  2.73262      0.006989605847
     -5.80138  3.27879  5.14169      0.002734286247
     -3.53776  5.85658  4.79297     -0.001746201796
     -2.28889  6.36806  5.11873     -0.004352864902
     -4.46904  4.75636  1.27130      0.014259334940
     -5.70399  3.85545  3.26909      0.009939811182
      5.23042 -2.50476  5.09528      0.004674432082
     -3.43667  5.13105 -1.37877      0.017263155581
     -0.18409  0.82494 11.52234     -0.024728683592
      1.39168  5.66406  8.38473     -0.011466912689
     -4.23380  3.83994  8.38707     -0.014745229409
      5.00125  0.75395  8.35455     -0.011670588865
     -1.22344  4.09463 10.33960     -0.021016002991
      2.55425  2.88528 10.39703     -0.019194444308
     -3.51684  0.80869 10.42049     -0.021867682426
     -1.29630 -2.44708 10.38820     -0.025142566542
      2.63453 -1.24521 10.38795     -0.020710151134
     -1.87355  6.11561  6.99237     -0.011395081187
      4.41154 -2.55053  6.90653     -0.005278191931
     -0.71523  2.48790 11.23116     -0.023527376416
      1.17084  1.87971 11.26307     -0.023009948495
     -1.90864  0.81776 11.24139     -0.024552247827
     -0.77308 -0.79842 11.26530     -0.025375067192
      1.23300 -0.20614 11.27061     -0.023808092040
      0.18140  5.08461  9.56603     -0.017844604024
      2.03075  4.53245  9.54857     -0.015737059309
     -0.18396  6.12019  7.88794     -0.012620979758
     -2.97974  3.92545  9.64945     -0.019291569985
     -4.19611  2.44010  9.48343     -0.018050574580
     -3.26808  5.11120  7.87355     -0.014008497799
     -5.21054  2.42010  7.90506     -0.010494863040
     -4.82958  3.95006  6.71591     -0.007790130193
      2.14104 -2.96828  9.49304     -0.018001797836
      3.02602 -3.54205  7.86742     -0.009534437849
      4.17548  1.90038  9.40780     -0.015082495466
      4.09005 -0.07817  9.57725     -0.017118453741
      5.02013 -0.82148  7.75011     -0.010307110510
      2.84295  1.06117 10.68348     -0.020801404054
      3.64311  3.61421  9.04793     -0.011850468042
      0.51053 -2.08174 10.71910     -0.023719590470
      3.78712 -1.87361  9.03473     -0.015434992717
     -2.19826 -3.59468 10.58553     -0.023917172675
     -0.88720 -5.27637 10.56821     -0.020678974290
      0.43316 -5.19017  9.98404     -0.015313368848
     -4.49227 -10.25715  0.64191     -0.021417672316
     -4.30566 -9.42670 -0.30148     -0.021174028977
      1.16834 -3.97801  9.29540     -0.016277433604
     -4.26534 -6.55537 11.43892     -0.030249616522
     -8.31505 -3.54036  8.30366     -0.023201576207
     -8.36372 -9.60504  8.29747     -0.035516718902
     -5.78422 -11.47781  3.09151     -0.027947357209
     -5.30469 -3.28567 10.25619     -0.024733224733
     -7.59809 -6.57162 10.33707     -0.033007936766
     -5.37755 -9.82738 10.30478     -0.033034752297
     -9.84302 -6.57993  6.84423     -0.032304605854
     -5.94951 -11.96169  6.82511     -0.031467436083
     -8.78516 -9.92821  4.66723     -0.035774417111
     -4.79647 -4.89240 11.14775     -0.028886250709
     -2.91041 -5.50060 11.17966     -0.027155256358
     -5.98989 -6.56254 11.15798     -0.032112687223
     -4.85433 -8.17873 11.18188     -0.032038611725
     -2.84825 -7.58644 11.18719     -0.028047582296
     -7.06099 -3.45485  9.56604     -0.024600947256
     -8.27736 -4.94021  9.40002     -0.029693926818
     -9.29178 -4.96020  7.82164     -0.028485350187
     -8.17233 -8.32112  9.48754     -0.034897088283
     -7.08345 -9.87949  9.44119     -0.034808907897
     -9.31610 -8.30945  7.71067     -0.035075348170
     -7.40934 -10.93026  7.71237     -0.034722188161
     -8.78205 -9.96562  6.60764     -0.035660557876
     -3.76589 -10.92569  9.45179     -0.029282236190
     -4.20776 -11.96648  7.75295     -0.027831756056
     -9.87928 -6.80023  4.75975     -0.032595884106
     -9.33411 -8.26020  3.68306     -0.036452578561
     -5.99696 -11.98006  4.73855     -0.029534786364
     -7.34529 -10.97148  3.66526     -0.033369500126
     -6.44735 -10.32154  1.92758     -0.031905270469
     -1.23830 -6.31914 10.60007     -0.022575815616
     -8.92217 -6.73017  8.98459     -0.033326698520
     -3.57072 -9.46205 10.63569     -0.029839117432
     -5.70609 -11.09074  8.95633     -0.032917392832
     -9.75547 -5.08788  5.75843     -0.026578826091
     -9.71789 -8.23312  5.93609     -0.034974737591
     -7.43200 -11.35943  5.86139     -0.033932798163
     -8.23259 -9.59380  2.88152     -0.036625040123
     -6.84222 -0.57157  8.81351     -0.008618682888
     -5.45900  1.31703  8.40274     -0.009842520457
     -1.33672  3.85020 -5.51700      0.020111355745
      0.50334  2.43529 -8.31765      0.019510438820
     -2.07606  2.72616 -8.49318      0.022199273326
     -0.61439  3.48795 -7.21449      0.021147094702
      4.21255  6.47620  7.41570      0.008232351297
      6.42844 -2.45826 -2.70062      0.010912736746
      6.42844 -2.45826 -2.70062      0.010912736746
      6.43267  6.91213  7.64025      0.011067772904
      6.43267  6.91213  7.64025      0.011067772904
      6.43267  6.91213  7.64025      0.011067772904
      6.64889  5.93572 -10.55204      0.029256329819
      3.86405  5.59246 -10.18467      0.023489162699
      5.67485  4.25053 -10.35268      0.023520839806
     11.47732 12.71051  2.08857      0.007149801300
     13.27409 11.35964  0.74639      0.004328884225
     12.27422 11.16443  3.13476      0.008813634597
     10.63471 10.41476 -10.10726      0.025732057906
     11.18556  7.25910 -9.96989      0.028100556658
      9.90206  8.80798 -10.67628      0.030932059839
      6.50167 11.12468 -9.05138      0.026338044939
      8.18818 10.30950 -10.36085      0.030327554965
      7.11722  8.46472 -10.30890      0.035552429630
      8.92802  7.12279 -10.47692      0.034491660850
     -5.34623  4.73111 -1.26877      0.027686423188
     -5.31839  5.14413 -3.08384      0.030832440385
     -3.47834  3.72923 -5.88449      0.031843715803
     -6.05773  4.02010 -6.06002      0.034913502261
     -4.59606  4.78188 -4.78133      0.031931467143
     -4.53824 -7.38127 -7.82739     -0.000196851563
     -5.85637 -5.30536 -8.64755      0.008156730766
     -4.10837 -6.35161 -9.35192      0.004636790758
      4.98655 -5.04647  1.52816      0.019347588345
      5.32760 -12.11218  2.16850      0.005198323892
      1.42331 -5.73921 10.13844     -0.010568556225
      1.85561 -4.71819  9.39977     -0.011251539466
     -1.05007 -7.45170 10.59376     -0.020827662261
     -1.17014 -9.79243 10.54641     -0.017505731665
     -1.91737 -10.59029 10.06939     -0.020288749812
     -2.79083 -11.19115  9.33434     -0.023993630900
      0.96130 -10.14187 10.66729     -0.007326659266
      1.41951 -11.02561 10.31949     -0.005307055663
      1.71049 -12.01378  9.74141     -0.003998887128
      3.18813 -3.76196  7.72473     -0.007346549069
      4.04248 -4.44454  7.83594     -0.002987585413
      4.91626 -5.30244  7.73930      0.000252886451
     -1.87025 -13.51305  7.83889     -0.011356392450
     -0.38088 -14.02255  7.75995     -0.006433634332
     -3.96553 -12.66906  6.66004     -0.021546820745
      2.09732 -13.92441  7.62793     -0.001755422067
      4.37267 -12.44537  7.78920      0.000992112894
      5.18741 -11.16995  7.96660      0.001761358689
      1.43179 -14.74937  5.96860     -0.001649446708
      0.96774 -14.98459  4.55709     -0.001603516171
      3.01802 -14.06450  6.62552     -0.000027874953
      3.88727 -13.90127  5.59288      0.001394471323
      5.00790 -13.12567  4.25518      0.003321172519
      6.25645 -8.50323  7.25004      0.003120122406
      6.78357 -9.22459  5.46903      0.005028300691
      5.41048 -5.26862  2.01892      0.016839003534
      5.41048 -5.26862  2.01892      0.016839003534
      5.98083 -8.21091  1.16818      0.009400867148
      5.41048 -5.26862  2.01892      0.016839003534
      4.75767 -5.70120  0.62938      0.016365946556
     -4.24466 -10.95680  0.79605     -0.018486212427
     -3.35402 -12.22962  0.80471     -0.012089372911
     -3.24693 -9.19135 -0.74920     -0.015243197738
     -2.12581 -9.55332 -1.34090     -0.011479179602
      0.26293 -14.22801  1.39946     -0.002551251211
     -1.35438 -14.15415  1.83344     -0.004886453148
     -1.21728 -13.48189  0.66033     -0.005495732976
     -1.03067 -12.65143 -0.28307     -0.006254619416
     -0.58284 -11.13774 -1.34432     -0.007417249542
      5.32760 -12.11218  2.16850      0.005198323892
      3.58145 -10.54813 -0.81232      0.001623445969
      4.69967 -6.15484  8.64114     -0.000660449876
      4.44333 -7.20274  9.31381     -0.000661353083
      3.13449 -6.36560  9.86646     -0.004391498098
      0.70272 -13.34371  8.75902     -0.005206215908
     -1.73307 -12.53313  9.01369     -0.014015308629
     -0.28177 -11.87278  9.91944     -0.009978778872
      5.40719 -9.69048  8.41554      0.001761170817
      3.45154 -12.03898  8.97492     -0.000554183266
      4.43392 -9.85412  9.34923      0.000497007681
      5.59202 -4.73820  3.89617      0.013035295036
      6.24705 -5.77847  4.74542      0.008449917747
      6.36628 -6.63991  6.12082      0.004981070077
      5.68287 -5.25587  6.20988      0.004834475791
      4.89690 -4.11322  5.77880      0.005956983944
     -1.10801 -14.71317  3.37584     -0.004180098735
     -0.39796 -14.93678  4.78546     -0.003550563082
     -1.89352 -14.54039  4.84608     -0.006484267798
     -0.85765 -14.58216  6.32021     -0.005667147505
     -2.38047 -14.02699  6.31702     -0.010071130963
     -3.02099 -13.41872  2.07474     -0.009131821811
      6.49760 -10.54368  5.51063      0.004412879012
      5.94283 -11.56991  6.00646      0.003408446891
      5.14013 -12.67900  6.09270      0.002513718708
      3.60775 -13.97253  2.91681      0.002011724662
      1.90306 -14.62311  2.80859     -0.000183767381
      2.86519 -14.53881  4.25217      0.000715435276
      6.53444 -9.28331  2.44602      0.008049869366
      6.43819 -7.37151  2.39834      0.010181869189
      6.82305 -7.94029  3.72127      0.007963083038
      2.14063 -8.66409 -1.74972     -0.006847762324
      3.40732 -9.35315 -1.20845      0.000013707663
      3.57242 -7.94752 -1.13761      0.000579539703
      4.79884 -7.45849 -0.16125      0.008157312596
     -1.94824 -11.07100 -0.95089     -0.010067548069
      2.14914 -11.05790 -1.23131     -0.002070972652
      3.15813 -12.26976 -0.06767      0.001433159922
      0.81837 -11.32263 -1.34541     -0.004691640588
      2.00838 -12.82178 -0.11998     -0.000706970246
      0.68314 -12.79349 -0.39122     -0.003194460226
     -4.09784 -13.27997  3.96261     -0.014666167851
     -2.98927 -13.62698  2.44516     -0.008832558697
      5.32087 -11.50004  1.25437      0.005506952926
      5.34979 -8.57780  0.18254      0.007455672410
      5.32087 -11.50004  1.25437      0.005506952926
      4.16078 -10.50186 -0.50417      0.003186056117
      6.37226 -9.19630  1.89934      0.008244663160
      0.99078 -8.27306 10.92759     -0.008980628016
      0.99078 -8.27306 10.92759     -0.008980628016
      0.99078 -8.27306 10.92759     -0.008980628016
      3.14738 -9.61751 10.30295     -0.001960057315
 ---------------------------------------------------

 ---------------------------------------------------
 RESTRAINED ELECTROSTATIC POTENTIAL PARAMETERS
 ---------------------------------------------------
 N_VDW_LAYERS:       4
 VDW_SCALE_FACTOR:   1.400
 VDW_INCREMENT:      0.200
 VDW_POINT_DENSITY:  1.000
 RESP_A:             0.0100
 RESP_B:             0.1000
 CHARGE_GROUPS:      [0, 1, 2, 3, 4, 5, 6, 7, 8, 9, 10, 11, 12, 13, 14, 15, 16, 17, 18, 19, 20, 21, 22, 23, 24, 25, 26, 27, 28, 29, 30, 31, 32, 33, 34, 35, 36, 37, 38, 39, 40, 41, 42, 43, 44, 45]
 ---------------------------------------------------

 ----------------------------------------------
 RESTRAINED ELECTROSTATIC POTENTIAL CHARGES
   Center  Symbol  RESP Charge (a.u.)
 ----------------------------------------------
       1     H      0.01938
       2     C      0.02754
       3     H      0.04208
       4     H      0.05582
       5     C      0.02686
       6     O     -0.28345
       7     C      0.00373
       8     C      0.01816
       9     C      0.06491
      10     C     -0.01640
      11     C      0.00622
      12     C     -0.04686
      13     O     -0.30174
      14     C     -0.10386
      15     C     -0.00666
      16     C     -0.03960
      17     C     -0.10846
      18     C     -0.11644
      19     O     -0.18148
      20     C     -0.00126
      21     N      0.06730
      22     C      0.00601
      23     N      0.02123
      24     O     -0.30003
      25     C     -0.04557
      26     N      0.06290
      27     O     -0.35496
      28     H      0.00631
      29     H      0.10804
      30     H      0.04651
      31     H      0.05334
      32     H      0.13627
      33     H      0.00864
      34     H      0.13671
      35     H      0.18127
      36     H      0.07777
      37     H      0.21927
      38     H      0.08978
      39     H      0.05231
      40     H      0.06847
      41     N      0.00994
      42     H      0.19697
      43     C     -0.00169
      44     H      0.03859
      45     H      0.01100
      46     H      0.04512
 ----------------------------------------------

*** PSI4 exiting successfully. Buy a developer a beer!
