38
../min.omega.180.chi1.105.phi1.30.log	Energy: -505585.0269501
N         -0.19393        0.71303       -0.16724
C         -0.19304        2.58545        1.53674
C         -0.83344        1.39973        0.83898
C          1.11178        0.98884       -0.80876
C          1.62274        2.43003       -0.81063
C          2.19129        0.01658       -0.33877
C          3.17670       -0.39892       -1.24229
C          4.20083       -1.24622       -0.84348
C          4.25892       -1.70195        0.47242
C          3.28358       -1.30380        1.37608
C          2.25560       -0.45114        0.97324
C         -0.88497       -0.40337       -0.77174
O         -1.91825        1.01201        1.24971
C         -2.42703       -0.30788       -0.79372
C         -4.60701       -1.17734       -0.34194
C         -2.76409       -1.89520        1.08168
N         -3.16361       -1.27818       -0.17280
O         -2.92926        0.51694       -1.53977
H          0.81037        2.36674        1.87570
H         -0.81816        2.80235        2.38924
H         -0.16138        3.45705        0.89801
H         -0.62928       -0.43364       -1.82053
H         -0.54494       -1.33397       -0.33792
H          0.93708        0.77054       -1.85362
H          3.13804       -0.06112       -2.26404
H          4.94557       -1.55607       -1.55451
H          5.04904       -2.36180        0.78222
H          3.31407       -1.65509        2.39198
H          1.50069       -0.16787        1.68333
H          2.02230        2.75294        0.13847
H          0.85089        3.11805       -1.13447
H          2.43255        2.48225       -1.52921
H         -5.05090       -2.13367       -0.09256
H         -3.14309       -1.33260        1.92815
H         -4.83874       -0.93124       -1.36485
H         -1.69273       -1.95126        1.17543
H         -5.02930       -0.41258        0.30408
H         -3.16055       -2.90336        1.11915
