38
../min.omega.180.chi1.75.phi1.30.log	Energy: -505587.6449610
N         -0.17771        0.08625       -0.12706
C          0.62974        0.16418        2.25125
C         -0.46628       -0.00379        1.21518
C          0.95833        0.87982       -0.64874
C          0.85104        2.36259       -0.29098
C          2.30841        0.20511       -0.41732
C          2.42635       -1.17941       -0.58837
C          3.65337       -1.81398       -0.45593
C          4.79656       -1.07743       -0.15053
C          4.69377        0.29641        0.01797
C          3.45918        0.93215       -0.11499
C         -1.27821       -0.08578       -1.04827
O         -1.56482       -0.38907        1.59019
C         -2.66156        0.35899       -0.52281
C         -4.98837        0.00727       -0.10558
C         -3.52244       -1.93807       -0.15877
N         -3.69548       -0.53548       -0.50061
O         -2.82628        1.55347       -0.33507
H          1.39726        0.87691        2.00468
H          1.10387       -0.80317        2.37730
H          0.15269        0.43671        3.18149
H         -1.12495        0.55491       -1.90278
H         -1.29577       -1.10335       -1.41453
H          0.82770        0.83372       -1.72159
H          1.55218       -1.76048       -0.81826
H          3.71907       -2.87899       -0.58986
H          5.74708       -1.56870       -0.04626
H          5.56653        0.87834        0.25458
H          3.40942        1.99578        0.02276
H          1.08261        2.57085        0.74612
H         -0.16338        2.69328       -0.47827
H          1.52028        2.95211       -0.90781
H         -5.76217       -0.68188       -0.42158
H         -3.61443       -2.08935        0.91127
H         -5.14472        0.96200       -0.57965
H         -2.55759       -2.30739       -0.46165
H         -5.05055        0.13895        0.97101
H         -4.28321       -2.51928       -0.66688
