38
../min.omega.0.chi1.180.phi1.60.log	Energy: -505588.5046276
N          0.26084        1.22084       -0.10501
C          2.58697        2.11432       -0.42678
C          1.12997        2.28536       -0.03849
C         -1.14214        1.47087        0.29702
C         -1.78462        2.60943       -0.49608
C         -2.01660        0.22419        0.18465
C         -2.23382       -0.55602        1.32663
C         -3.03792       -1.68627        1.28473
C         -3.64567       -2.06604        0.08929
C         -3.43864       -1.30390       -1.05207
C         -2.63256       -0.16638       -1.00376
C          0.71163       -0.08040       -0.54418
O          0.77683        3.37239        0.39684
C          1.83246       -0.68529        0.33070
C          3.59219       -2.35377        0.56552
C          2.19679       -2.37347       -1.47217
N          2.47235       -1.78418       -0.17184
O          2.09537       -0.21693        1.42646
H          3.14181        1.85049        0.46225
H          2.93160        3.07477       -0.78280
H          2.77342        1.36681       -1.18701
H         -0.11185       -0.77124       -0.51853
H          1.04440       -0.04049       -1.57539
H         -1.12152        1.76242        1.33889
H         -1.76410       -0.27286        2.25202
H         -3.19283       -2.26616        2.17687
H         -4.27177       -2.93939        0.05287
H         -3.90483       -1.58408       -1.97988
H         -2.49226        0.40703       -1.90104
H         -1.67978        2.45151       -1.56489
H         -1.33747        3.55665       -0.25262
H         -2.84385        2.65291       -0.26578
H          3.40399       -3.40078        0.77906
H          2.77565       -1.90716       -2.26558
H          3.71498       -1.81831        1.49040
H          1.14831       -2.31725       -1.72456
H          4.50536       -2.27926       -0.01792
H          2.46267       -3.42178       -1.43475
