38
../min.omega.180.chi1.225.phi1.90.log	Energy: -505593.3783230
N         -0.59178        1.34897        0.17175
C         -0.77080        3.49340       -1.09586
C         -1.39824        2.26443       -0.46431
C          0.82633        1.60520        0.51204
C          0.95758        2.11763        1.94672
C          1.73421        0.42781        0.16418
C          1.89729        0.07121       -1.17980
C          2.75439       -0.95693       -1.54601
C          3.46706       -1.65596       -0.57332
C          3.31033       -1.31778        0.76365
C          2.45058       -0.28126        1.12766
C         -1.26244        0.20555        0.74804
O         -2.60729        2.09417       -0.53548
C         -1.37648       -0.97327       -0.24441
C         -2.09990       -3.23405       -0.69156
C         -2.59511       -2.24646        1.50586
N         -1.86437       -2.14993        0.25257
O         -1.03580       -0.85433       -1.41016
H         -0.29522        4.12968       -0.35761
H         -1.56623        4.04399       -1.57432
H         -0.02970        3.22030       -1.83825
H         -0.70622       -0.12873        1.61329
H         -2.25156        0.49287        1.06949
H          1.14152        2.41061       -0.13185
H          1.32854        0.58055       -1.93450
H          2.86080       -1.21635       -2.58379
H          4.13138       -2.45261       -0.85683
H          3.85327       -1.85008        1.52418
H          2.35690       -0.03446        2.16862
H          0.62785        1.39187        2.68130
H          0.34923        3.00666        2.07084
H          1.98635        2.37771        2.17067
H         -1.98019       -4.18051       -0.17780
H         -3.65086       -2.01620        1.38083
H         -1.38677       -3.16884       -1.49495
H         -2.18606       -1.58900        2.25717
H         -3.10291       -3.18765       -1.10846
H         -2.51117       -3.25901        1.87949
