38
../min.omega.0.chi1.300.phi1.240.log	Energy: -505588.9188680
N          0.18496        0.83301       -0.11633
C          0.14094        2.86391        1.35032
C         -0.40413        2.03495        0.20201
C         -0.61495       -0.04346       -1.00201
C          0.12373       -1.29733       -1.47138
C         -1.96246       -0.41785       -0.38919
C         -3.14962       -0.11567       -1.06697
C         -4.38036       -0.50459       -0.55725
C         -4.45436       -1.19827        0.64939
C         -3.28615       -1.49794        1.33636
C         -2.05023       -1.11335        0.81615
C          1.32251        0.32526        0.61678
O         -1.37623        2.43994       -0.41997
C          2.57532        0.11151       -0.26207
C          4.74648       -0.95099       -0.54007
C          3.48205       -1.35196        1.54373
N          3.57663       -0.64972        0.27410
O          2.67105        0.64773       -1.35407
H          0.06617        2.32830        2.29100
H         -0.46232        3.75683        1.40577
H          1.17613        3.14717        1.19518
H          1.60490        1.01933        1.39174
H          1.06800       -0.59967        1.11693
H         -0.81907        0.54944       -1.88024
H         -3.10409        0.44489       -1.98264
H         -5.28051       -0.25805       -1.09161
H         -5.40878       -1.49470        1.04633
H         -3.32962       -2.03162        2.26940
H         -1.15767       -1.36407        1.36244
H          0.39483       -1.95893       -0.65466
H          1.00823       -1.04536       -2.03722
H         -0.54557       -1.85447       -2.11631
H          5.65013       -0.70640        0.00764
H          2.96466       -2.30378        1.45261
H          4.70737       -0.36773       -1.44302
H          2.98780       -0.75557        2.29728
H          4.77214       -2.00660       -0.79572
H          4.48489       -1.54879        1.89819
