38
../min.omega.0.chi1.90.phi1.30.log	Energy: -505584.7527548
N         -0.18002        0.78429       -0.29802
C         -1.70299        1.54156        1.56022
C         -0.43431        1.65620        0.73548
C          1.09572        0.84999       -1.04680
C          1.60234        2.24901       -1.39922
C          2.16877       -0.03767       -0.42059
C          2.64224       -1.15373       -1.12080
C          3.62248       -1.97551       -0.58263
C          4.14994       -1.69658        0.67699
C          3.68950       -0.59245        1.38077
C          2.70721        0.23505        0.83638
C         -1.02027       -0.30693       -0.73679
O          0.37331        2.52063        1.04591
C         -2.54840       -0.17201       -0.55190
C         -4.67591       -1.19088        0.02923
C         -2.59448       -2.31664        0.74087
N         -3.21940       -1.19646        0.05623
O         -3.11919        0.78560       -1.04823
H         -1.94740        0.52002        1.82176
H         -2.54052        1.97063        1.02886
H         -1.52534        2.10407        2.46434
H         -0.93844       -0.37538       -1.81358
H         -0.64873       -1.24228       -0.34076
H          0.85773        0.39754       -1.99982
H          2.24431       -1.37746       -2.09609
H          3.97369       -2.82661       -1.13864
H          4.90965       -2.33089        1.09763
H          4.09344       -0.36617        2.35159
H          2.36255        1.08935        1.38738
H          2.06578        2.75529       -0.57093
H          0.78825        2.86369       -1.76589
H          2.33229        2.13911       -2.19600
H         -5.03922       -2.13914       -0.35277
H         -3.31390       -2.72964        1.43481
H         -5.01662       -0.39390       -0.60783
H         -1.73278       -2.00998        1.31623
H         -5.07517       -1.04438        1.02803
H         -2.29778       -3.10497        0.05546
