38
../min.omega.0.chi1.210.phi1.330.log	Energy: -505588.0955969
N         -0.18572        0.99531       -0.22102
C         -2.44786        1.77062       -1.02918
C         -0.97327        1.99286       -0.74796
C          1.16546        1.41590        0.21476
C          1.09276        2.04228        1.60777
C          2.17510        0.27830        0.08060
C          2.52915       -0.14744       -1.20526
C          3.45304       -1.16483       -1.39798
C          4.05290       -1.77969       -0.30037
C          3.71792       -1.36322        0.98055
C          2.78665       -0.34190        1.16946
C         -0.58540       -0.34724        0.13556
O         -0.50306        3.10075       -0.96553
C         -2.04556       -0.55600        0.59590
C         -4.06348       -1.91031        0.59008
C         -2.32980       -2.35750       -1.11633
N         -2.76909       -1.56271        0.01918
O         -2.47250        0.11352        1.52251
H         -2.67368        0.79667       -1.44386
H         -2.74556        2.53346       -1.73333
H         -3.00560        1.89080       -0.11122
H         -0.31085       -1.03590       -0.64901
H         -0.02251       -0.64417        1.00891
H          1.46401        2.18623       -0.47543
H          2.07627        0.32885       -2.05774
H          3.71116       -1.47188       -2.39587
H          4.77279       -2.56513       -0.44509
H          4.17812       -1.82565        1.83549
H          2.54982       -0.03640        2.17116
H          0.68549        1.35541        2.34258
H          0.44821        2.91003        1.56933
H          2.07457        2.36303        1.94036
H         -4.85638       -1.72257       -0.12697
H         -1.60681       -3.11702       -0.83522
H         -4.23361       -1.31569        1.47006
H         -1.90739       -1.74426       -1.90045
H         -4.08056       -2.96206        0.85699
H         -3.19512       -2.85704       -1.52936
