38
../min.omega.0.chi1.315.phi1.240.log	Energy: -505587.2430619
N          0.21288        0.64953       -0.22036
C          0.23182        3.06259        0.45389
C         -0.38804        1.88594       -0.27697
C         -0.58051       -0.50109       -0.70932
C          0.04217       -1.86263       -0.39855
C         -2.02375       -0.50179       -0.21077
C         -3.07730       -0.68236       -1.11491
C         -4.38666       -0.78910       -0.66769
C         -4.67434       -0.71389        0.69401
C         -3.63874       -0.53378        1.60038
C         -2.32218       -0.43586        1.14970
C          1.43308        0.44255        0.52636
O         -1.40399        2.06361       -0.93433
C          2.60122       -0.05455       -0.35451
C          4.83865       -0.99640       -0.47737
C          3.86058       -0.53972        1.74117
N          3.74595       -0.42251        0.29647
O          2.50284       -0.07420       -1.57069
H          0.29087        2.88970        1.52344
H         -0.40687        3.91267        0.27048
H          1.22711        3.28613        0.08545
H          1.74993        1.36655        0.97997
H          1.27583       -0.25605        1.33823
H         -0.61405       -0.40440       -1.78615
H         -2.86899       -0.71901       -2.16931
H         -5.18313       -0.92041       -1.37847
H         -5.69018       -0.79090        1.03818
H         -3.84775       -0.47270        2.65391
H         -1.53105       -0.29889        1.86733
H          0.09908       -2.06014        0.66654
H          1.01915       -1.97874       -0.84453
H         -0.60291       -2.62176       -0.82406
H          5.77595       -0.54317       -0.17483
H          3.50516       -1.50055        2.10588
H          4.66969       -0.80624       -1.52260
H          3.32425        0.24687        2.25110
H          4.90509       -2.06910       -0.31576
H          4.90417       -0.44367        2.01005
