38
../min.omega.180.chi1.60.phi1.30.log	Energy: -505588.2460787
N         -0.21055        0.24411       -0.15228
C          0.72192        0.02065        2.17524
C         -0.41547       -0.05983        1.17386
C          0.96942        0.95339       -0.69734
C          0.92799        2.44238       -0.35192
C          2.29195        0.23665       -0.43522
C          2.38728       -1.13266       -0.71079
C          3.58511       -1.81438       -0.54873
C          4.72296       -1.13777       -0.11270
C          4.64481        0.22209        0.15395
C          3.43891        0.90450       -0.00777
C         -1.33143        0.14960       -1.06002
O         -1.48584       -0.52417        1.54069
C         -2.71535        0.42758       -0.43147
C         -4.98961       -0.14187        0.03143
C         -3.40139       -1.95301       -0.33777
N         -3.68531       -0.53464       -0.48502
O         -2.94830        1.57481       -0.08686
H          1.33895       -0.86348        2.07179
H          0.27169        0.02123        3.15698
H          1.35641        0.88521        2.06313
H         -1.24199        0.93081       -1.80046
H         -1.30695       -0.79527       -1.58749
H          0.83549        0.88680       -1.76946
H          1.51571       -1.66645       -1.04535
H          3.63298       -2.86705       -0.76303
H          5.65184       -1.66392        0.01378
H          5.51525        0.75730        0.48877
H          3.40827        1.95573        0.20748
H          1.12555        2.63099        0.69644
H         -0.05985        2.82905       -0.57172
H          1.65115        2.99771       -0.93922
H         -5.73094       -0.83988       -0.33849
H         -3.43020       -2.24723        0.70562
H         -5.23312        0.85133       -0.30768
H         -2.42923       -2.20750       -0.72467
H         -5.00494       -0.15233        1.11765
H         -4.14449       -2.51851       -0.88813
