38
../min.omega.0.chi1.165.phi1.0.log	Energy: -501794.5296252
N         -0.20375        1.00135       -0.71511
C         -2.41756        2.00842        0.05960
C         -0.99393        2.09801       -0.45825
C          1.13437        1.45074       -0.26793
C          1.15085        1.49513        1.26043
C          2.18473        0.35801       -0.08307
C          2.79107       -0.18082       -1.22415
C          3.75725       -1.17170       -1.12191
C          4.14063       -1.64713        0.13094
C          3.55247       -1.11854        1.27159
C          2.58219       -0.12201        1.16428
C         -0.75455       -0.31429       -0.48061
O         -0.49501        3.21453       -0.47570
C         -2.19930       -0.46410        0.04650
C         -4.05869       -1.97955        0.47940
C         -1.99836       -2.90610       -0.48848
N         -2.71004       -1.73110       -0.01213
O         -2.87269        0.45737        0.47844
H         -3.08569        1.56308       -0.70837
H         -2.78785        3.02885        0.27194
H         -2.45584        1.40578        1.00770
H         -1.33751       -0.55897       -1.37447
H          0.13411       -0.94687       -0.41707
H          1.23602        2.46360       -0.66418
H          2.50086        0.19159       -2.20654
H          4.21946       -1.57080       -2.02396
H          4.89913       -2.42162        0.21396
H          3.84818       -1.47686        2.25707
H          2.14368        0.28348        2.07339
H          0.97252        0.51753        1.71902
H          0.36850        2.16789        1.61216
H          2.11931        1.86178        1.61618
H         -4.68410       -2.39376       -0.31905
H         -1.80626       -3.60730        0.33453
H         -4.48764       -1.04265        0.82375
H         -1.04650       -2.64780       -0.94699
H         -4.03521       -2.69627        1.30960
H         -2.60392       -3.42412       -1.23988
