38
../min.omega.180.chi1.135.phi1.30.log	Energy: -505583.6645743
N         -0.16439        0.77051       -0.05977
C         -0.62966        3.08236        0.88955
C         -1.03398        1.66840        0.51521
C          1.10916        1.00944       -0.77633
C          1.70845        2.41611       -0.79258
C          2.16746        0.02146       -0.29115
C          2.95409       -0.67418       -1.21709
C          3.95890       -1.53258       -0.79364
C          4.19529       -1.71557        0.56771
C          3.41907       -1.03464        1.49520
C          2.41048       -0.17057        1.06838
C         -0.68929       -0.54182       -0.36240
O         -2.14487        1.29356        0.86346
C         -2.19623       -0.60360       -0.69841
C         -4.39196       -1.50607       -0.42410
C         -2.86982       -1.58640        1.47640
N         -3.01425       -1.41298        0.04005
O         -2.55887       -0.08733       -1.74297
H          0.32082        3.11684        1.40091
H         -1.40395        3.44270        1.54913
H         -0.58615        3.73213        0.02632
H         -0.21957       -0.89963       -1.26609
H         -0.42244       -1.23632        0.42048
H          0.90133        0.77490       -1.81473
H          2.77517       -0.54478       -2.27080
H          4.55114       -2.06137       -1.51877
H          4.97082       -2.38374        0.89619
H          3.59114       -1.17271        2.54770
H          1.80768        0.34311        1.79589
H          2.03175        2.75367        0.18200
H          1.03812        3.14469       -1.22700
H          2.58902        2.36972       -1.42253
H         -4.84637       -2.38410        0.01908
H         -3.43399       -0.83337        2.01641
H         -4.41075       -1.59679       -1.49741
H         -1.84121       -1.51351        1.78605
H         -4.96680       -0.62912       -0.13920
H         -3.23722       -2.56883        1.74993
