38
../min.omega.180.chi1.150.phi1.30.log	Energy: -505582.8828676
N         -0.16111        0.81062        0.04517
C         -0.81792        3.19391        0.64296
C         -1.12338        1.72718        0.40149
C          1.09610        1.04998       -0.69956
C          1.72703        2.44228       -0.66009
C          2.15330        0.04142       -0.25610
C          2.89902       -0.65983       -1.21118
C          3.90731       -1.53159       -0.82493
C          4.18852       -1.72219        0.52682
C          3.45379       -1.03444        1.48265
C          2.44220       -0.15616        1.09363
C         -0.62499       -0.54500       -0.14566
O         -2.24738        1.34134        0.69061
C         -2.08237       -0.69580       -0.63642
C         -4.26985       -1.65105       -0.52074
C         -2.97964       -1.47826        1.53830
N         -2.95891       -1.45827        0.08461
O         -2.33500       -0.30072       -1.76303
H         -0.78568        3.75132       -0.28439
H          0.10769        3.34608        1.17576
H         -1.64002        3.56895        1.23293
H         -0.05294       -1.00061       -0.93804
H         -0.43646       -1.12625        0.74439
H          0.87120        0.84554       -1.74212
H          2.68482       -0.52493       -2.25747
H          4.46783       -2.06471       -1.57178
H          4.96676       -2.40082        0.82613
H          3.66114       -1.17745        2.52812
H          1.87258        0.36549        1.84195
H          2.01003        2.74240        0.34036
H          1.10060        3.20255       -1.10265
H          2.63516        2.39045       -1.24874
H         -4.74868       -2.49777       -0.04363
H         -3.61979       -0.69366        1.92788
H         -4.16054       -1.84884       -1.57407
H         -1.99621       -1.33905        1.95375
H         -4.89819       -0.77344       -0.39523
H         -3.35479       -2.43936        1.87062
