38
../min.omega.0.chi1.330.phi1.330.log	Energy: -505576.9398007
N          0.21911       -0.02191       -0.48248
C          1.26143        2.06524        0.48857
C          0.09194        1.29083       -0.09063
C         -0.98923       -0.75931       -0.91680
C         -0.88616       -2.27432       -0.73728
C         -2.30174       -0.32357       -0.26954
C         -3.39614        0.01000       -1.07644
C         -4.63643        0.27797       -0.51458
C         -4.81253        0.21635        0.86666
C         -3.73606       -0.11965        1.67582
C         -2.49158       -0.39719        1.10988
C          1.42790       -0.81028       -0.40112
O         -0.94650        1.90675       -0.28593
C          2.78285       -0.07806       -0.52575
C          5.08985        0.16714        0.19273
C          3.50870       -1.01078        1.68265
N          3.73713       -0.32228        0.42256
O          3.00408        0.59019       -1.52257
H          1.87251        1.50291        1.18227
H          0.83164        2.91086        1.00471
H          1.88770        2.42212       -0.31625
H          1.41176       -1.45701        0.46356
H          1.46926       -1.44985       -1.27055
H         -1.09607       -0.57277       -1.98131
H         -3.26932        0.07662       -2.14245
H         -5.46321        0.54032       -1.15055
H         -5.77318        0.42884        1.30048
H         -3.85818       -0.17009        2.74340
H         -1.66732       -0.65451        1.75283
H         -0.73145       -2.55310        0.29927
H         -0.11141       -2.73200       -1.33903
H         -1.82770       -2.70770       -1.04968
H          5.32451        0.97953        0.87371
H          3.56254       -2.09043        1.57819
H          5.17268        0.52102       -0.81972
H          2.55637       -0.74759        2.12081
H          5.80057       -0.63627        0.35410
H          4.27723       -0.70322        2.37867
