38
../min.omega.0.chi1.270.phi1.120.log	Energy: -505588.3197859
N         -0.21073        1.49881        0.28251
C         -0.53512        3.51620       -1.15412
C          0.32653        2.64299       -0.26082
C          0.63178        0.73290        1.22910
C         -0.17999        0.23345        2.42480
C          1.50188       -0.33530        0.57078
C          2.66341        0.05254       -0.10782
C          3.49779       -0.89132       -0.68983
C          3.19690       -2.24939       -0.60171
C          2.05349       -2.64865        0.07625
C          1.21582       -1.69719        0.65854
C         -1.57645        1.09896        0.02902
O          1.46990        2.99711       -0.00952
C         -1.68320       -0.28388       -0.65209
C         -2.69683       -2.44130       -0.93426
C         -3.65735       -0.89970        0.73123
N         -2.55156       -1.21727       -0.15783
O         -1.00256       -0.49091       -1.64357
H         -0.86353        2.97948       -2.03687
H          0.07446        4.35387       -1.45578
H         -1.40863        3.88618       -0.62821
H         -2.14788        1.14989        0.94267
H         -2.03760        1.78183       -0.66348
H          1.31452        1.46976        1.61886
H          2.90529        1.09522       -0.17812
H          4.38436       -0.56916       -1.20659
H          3.84604       -2.98002       -1.05057
H          1.80917       -3.69312        0.15737
H          0.33968       -2.03840        1.17781
H         -0.91898       -0.51561        2.17001
H         -0.68755        1.06470        2.90330
H          0.49391       -0.20819        3.14934
H         -3.00633       -3.24114       -0.27343
H         -4.44983       -0.34959        0.22882
H         -1.75212       -2.69281       -1.38436
H         -3.33454       -0.33698        1.59381
H         -3.43861       -2.33066       -1.72112
H         -4.07649       -1.82757        1.09413
