38
../min.omega.180.chi1.90.phi1.60.log	Energy: -505592.2928031
N          0.15314        0.02810        0.18098
C         -0.46003       -0.94142        2.41520
C          0.50847       -0.23646        1.48357
C         -0.87847       -0.71730       -0.57576
C         -0.81605       -2.23496       -0.39991
C         -2.26532       -0.09903       -0.41488
C         -3.42239       -0.84400       -0.67231
C         -4.68120       -0.26509       -0.59455
C         -4.81886        1.07955       -0.25448
C         -3.68049        1.83032        0.00415
C         -2.41675        1.24503       -0.07597
C          1.18769        0.70327       -0.56946
O          1.57925        0.16505        1.91724
C          2.48957       -0.12574       -0.64328
C          4.89347       -0.28473       -0.63209
C          3.82572        1.87347       -0.06648
N          3.68764        0.53241       -0.61102
O          2.40584       -1.32880       -0.82981
H         -1.48915       -0.88275        2.09492
H         -0.35236       -0.47848        3.38636
H         -0.17043       -1.98145        2.50891
H          0.85020        0.85687       -1.58544
H          1.35928        1.67195       -0.13069
H         -0.60174       -0.54993       -1.60770
H         -3.35059       -1.88217       -0.93548
H         -5.55313       -0.86179       -0.79523
H         -5.79424        1.52725       -0.19111
H         -3.76694        2.86860        0.27090
H         -1.55003        1.84107        0.13641
H         -1.30176       -2.58207        0.50221
H          0.21874       -2.54756       -0.39918
H         -1.30403       -2.71893       -1.23817
H          5.69071        0.27253       -1.10874
H          3.51795        1.92255        0.97146
H          4.70487       -1.18540       -1.19043
H          3.26210        2.59696       -0.64199
H          5.20552       -0.55526        0.37304
H          4.86676        2.15688       -0.13167
