38
../min.omega.180.chi1.120.phi1.0.log	Energy: -505582.5890388
N         -0.25658        0.88804       -0.27477
C         -0.52748        2.83541        1.32016
C         -1.06443        1.65355        0.53417
C          1.11094        1.16194       -0.77213
C          1.71303        2.55453       -0.58162
C          2.08957        0.08675       -0.30553
C          2.95435       -0.51887       -1.22501
C          3.88509       -1.46183       -0.81229
C          3.96779       -1.82218        0.53157
C          3.11369       -1.23150        1.45245
C          2.18069       -0.28160        1.03622
C         -0.81768       -0.22760       -1.00265
O         -2.24276        1.36438        0.68830
C         -2.31988       -0.56783       -0.87926
C         -4.13928       -1.73210        0.17030
C         -1.99893       -1.58935        1.35213
N         -2.71338       -1.44367        0.09420
O         -3.06281       -0.21732       -1.78168
H          0.39616        2.61208        1.83463
H         -1.28992        3.07716        2.04473
H         -0.37313        3.69727        0.68608
H         -0.71082       -0.03347       -2.06142
H         -0.23942       -1.11621       -0.78059
H          1.02696        1.05239       -1.84725
H          2.89344       -0.25422       -2.26672
H          4.53817       -1.91946       -1.53349
H          4.68556       -2.55596        0.85096
H          3.16756       -1.50492        2.49102
H          1.52028        0.16173        1.75990
H          1.99107        2.77398        0.43814
H          1.05625        3.33031       -0.95477
H          2.62148        2.58340       -1.17208
H         -4.27699       -2.66495        0.70430
H         -2.38431       -0.90896        2.10435
H         -4.54308       -1.82535       -0.82377
H         -0.94456       -1.39727        1.22644
H         -4.67270       -0.94302        0.69344
H         -2.11247       -2.60753        1.70620
