38
../min.omega.0.chi1.90.phi1.270.log	Energy: -505591.3154484
N          0.15292        1.44695        0.42771
C          1.07848        3.11328       -1.16925
C         -0.09293        2.49612       -0.42776
C         -0.91924        0.77706        1.19855
C         -1.96533        1.71767        1.79778
C         -1.55424       -0.40216        0.46525
C         -1.55246       -1.66587        1.06782
C         -2.15322       -2.75441        0.45141
C         -2.76797       -2.59776       -0.78963
C         -2.77544       -1.34966       -1.39675
C         -2.17563       -0.25476       -0.77427
C          1.48761        0.93005        0.62947
O         -1.22203        2.92293       -0.62478
C          1.84999       -0.20317       -0.35646
C          3.08409       -2.24282       -0.83740
C          3.36121       -1.17143        1.37327
N          2.78645       -1.11771        0.03880
O          1.34859       -0.21249       -1.46897
H          1.77402        3.59429       -0.48852
H          0.67197        3.86087       -1.83306
H          1.60791        2.36509       -1.74361
H          2.23048        1.70581        0.50393
H          1.56736        0.59616        1.65211
H         -0.39736        0.35344        2.04776
H         -1.08177       -1.79736        2.02795
H         -2.14193       -3.71715        0.93116
H         -3.23221       -3.43905       -1.27264
H         -3.24580       -1.22015       -2.35509
H         -2.18843        0.70572       -1.25229
H         -2.65881        2.09020        1.06384
H         -1.48633        2.56367        2.27958
H         -2.51604        1.16318        2.55144
H          4.15547       -2.32030       -0.98835
H          2.69911       -1.64838        2.09156
H          2.59882       -2.08896       -1.78494
H          3.62509       -0.18791        1.73656
H          2.72688       -3.17066       -0.40014
H          4.27394       -1.74958        1.32512
