38
../min.omega.180.chi1.165.phi1.330.log	Energy: -505581.4478005
N         -0.22306        1.00327       -0.51867
C         -1.16929        3.30424       -0.16655
C         -1.31502        1.79604       -0.25007
C          1.09607        1.41225        0.01529
C          1.01785        1.93986        1.44834
C          2.14154        0.30025       -0.02882
C          2.92473        0.17123       -1.18208
C          3.91781       -0.79338       -1.27770
C          4.15148       -1.65766       -0.20950
C          3.38250       -1.54279        0.94024
C          2.38652       -0.57039        1.03243
C         -0.51703       -0.41115       -0.56676
O         -2.45044        1.34141       -0.25082
C         -1.67999       -0.88976        0.33104
C         -3.68217       -2.13226        0.72962
C         -3.27669       -1.29934       -1.52217
N         -2.71079       -1.60131       -0.21733
O         -1.52210       -0.80079        1.53781
H         -0.18770        3.68176       -0.40871
H         -1.45668        3.64032        0.82124
H         -1.88684        3.71009       -0.86783
H         -0.67408       -0.69923       -1.59658
H          0.31891       -0.98150       -0.21743
H          1.46685        2.20089       -0.62722
H          2.75323        0.83601       -2.01097
H          4.50758       -0.86904       -2.17356
H          4.92069       -2.40584       -0.27561
H          3.54955       -2.20570        1.77000
H          1.79582       -0.51963        1.92695
H          0.46614        1.25218        2.07810
H          0.53538        2.90219        1.51526
H          2.01530        2.05961        1.85431
H         -4.36794       -1.36105        1.06972
H         -3.68288       -2.20982       -1.94753
H         -3.17265       -2.54236        1.58565
H         -2.53577       -0.91229       -2.20013
H         -4.24848       -2.91517        0.23960
H         -4.06916       -0.56286       -1.43911
