38
../min.omega.0.chi1.285.phi1.270.log	Energy: -505593.2238854
N         -0.14397        0.65754        0.00220
C         -0.72253        2.59179       -1.45556
C          0.13478        1.94929       -0.38080
C          0.75865        0.05969        1.01232
C          0.10886       -1.08013        1.79762
C          2.10949       -0.33257        0.41829
C          3.26305        0.37733        0.77241
C          4.50360        0.01838        0.26449
C          4.61892       -1.05490       -0.61721
C          3.48272       -1.76291       -0.98350
C          2.23845       -1.40377       -0.46499
C         -1.22474       -0.09947       -0.58787
O          1.05649        2.57510        0.12385
C         -2.56572        0.06859        0.16120
C         -4.85494       -0.67083        0.50498
C         -3.46732       -1.83370       -1.16936
N         -3.60575       -0.72181       -0.24276
O         -2.68037        0.90504        1.04231
H         -0.57422        2.10502       -2.41435
H         -0.41156        3.62195       -1.53810
H         -1.77501        2.55300       -1.20274
H         -1.37445        0.19212       -1.61804
H         -0.95454       -1.14370       -0.61392
H          0.94382        0.85341        1.71814
H          3.17722        1.22384        1.42747
H          5.37742        0.57776        0.54748
H          5.58047       -1.33020       -1.01237
H          3.55839       -2.59277       -1.66379
H          1.37300       -1.97259       -0.75745
H         -0.06462       -1.97128        1.20465
H         -0.82825       -0.75707        2.23400
H          0.77794       -1.36325        2.60196
H         -5.69008       -0.65551       -0.18608
H         -3.16051       -2.74931       -0.66892
H         -4.87104        0.22048        1.10725
H         -2.76186       -1.61291       -1.95633
H         -4.95614       -1.53893        1.15105
H         -4.42658       -2.01209       -1.63724
