38
../min.omega.0.chi1.120.phi1.180.log	Energy: -505585.6229310
N         -1.53582        0.02228       -0.00248
C         -3.83003        0.56495       -0.82415
C         -2.76168       -0.43669       -0.42633
C         -0.73887       -0.75542        0.97350
C         -1.42011       -1.95209        1.63834
C          0.61623       -1.15566        0.39470
C          1.79843       -0.88792        1.09526
C          3.02432       -1.31102        0.60131
C          3.09178       -2.01016       -0.60256
C          1.92534       -2.28385       -1.30322
C          0.69262       -1.86060       -0.80593
C         -1.35848        1.45641        0.03110
O         -3.00401       -1.63025       -0.53828
C          0.01805        1.97236        0.50704
C          2.23388        2.81975        0.00648
C          0.98138        1.68936       -1.78158
N          0.97407        2.23598       -0.43429
O          0.17289        2.23477        1.68870
H         -4.04530        1.27059       -0.03062
H         -4.71994        0.00035       -1.05580
H         -3.53808        1.13019       -1.70266
H         -1.57150        1.87549       -0.94001
H         -2.03122        1.91978        0.74422
H         -0.54321       -0.06442        1.78070
H          1.75486       -0.33820        2.01891
H          3.92416       -1.09813        1.15083
H          4.04249       -2.33845       -0.98331
H          1.96749       -2.82938       -2.22927
H         -0.21087       -2.08388       -1.34497
H         -1.56734       -2.78402        0.97077
H         -2.37912       -1.67806        2.06178
H         -0.77180       -2.26436        2.45083
H          2.96836        2.04769        0.21378
H          1.03622        2.49143       -2.51085
H          2.07119        3.40117        0.89815
H          0.10191        1.09800       -1.97250
H          2.61463        3.46178       -0.77943
H          1.84104        1.04197       -1.91032
