28
../min.c.15.o.240.log	Energy: -350345.7060707
N         -1.37668        0.15618        0.45542
O         -3.60989        0.05226        0.88011
C         -2.81787       -1.25632       -0.95145
C         -2.65651       -0.24373        0.17000
C         -0.49212        0.45978       -0.68988
C         -0.71692        1.88689       -1.19488
C          0.96117        0.15325       -0.34213
C          1.43260       -1.15009       -0.53619
C          2.74624       -1.48747       -0.24219
C          3.62779       -0.51857        0.23323
C          3.18002        0.78361        0.40813
C          1.85675        1.11641        0.12017
C         -0.75790       -0.03533        1.76080
H         -2.78958       -0.81134       -1.94011
H         -3.78404       -1.72476       -0.82932
H         -2.03637       -2.00375       -0.89192
H         -1.54946       -0.15888        2.48699
H         -0.17516        0.82759        2.05040
H         -0.12045       -0.90982        1.77719
H         -0.73925       -0.20572       -1.50441
H          0.76469       -1.90557       -0.91235
H          3.08597       -2.49669       -0.39243
H          4.64749       -0.77680        0.45530
H          3.85261        1.54245        0.76594
H          1.53494        2.13095        0.26353
H         -0.55936        2.61809       -0.41099
H         -1.74095        2.00026       -1.53597
H         -0.05455        2.11214       -2.02433
