28
../min.c.300.o.45.log	Energy: -350348.6649545
N          1.34748       -0.19450        0.52372
O          3.05713        1.05279       -0.31278
C          3.29001       -1.31409       -0.50756
C          2.55337       -0.04555       -0.11109
C          0.36326        0.89638        0.35753
C          0.69042        1.74961       -0.87012
C         -1.02849        0.32899        0.09674
C         -2.11327        0.87695        0.79070
C         -3.40882        0.43579        0.55801
C         -3.64468       -0.59225       -0.35204
C         -2.57564       -1.16001       -1.03142
C         -1.27983       -0.68931       -0.82160
C          1.13325       -1.14470        1.60760
H          3.96649       -1.61405        0.28681
H          3.88982       -1.09003       -1.37890
H          2.61743       -2.13473       -0.72065
H          1.86461       -1.93862        1.56006
H          0.14764       -1.58339        1.53880
H          1.22971       -0.65231        2.57201
H          0.33282        1.51661        1.24809
H         -1.94194        1.65818        1.51077
H         -4.22926        0.87773        1.09492
H         -4.64561       -0.94664       -0.52111
H         -2.74355       -1.95689       -1.73382
H         -0.46130       -1.13697       -1.35652
H          0.90706        1.13040       -1.73077
H          1.49969        2.43702       -0.72028
H         -0.20050        2.32194       -1.11372
