28
../min.c.285.o.60.log	Energy: -350344.1241983
N         -1.38713       -0.15059        0.66513
O         -3.09138       -0.54395       -0.79061
C         -2.66791        1.74441       -0.26301
C         -2.41466        0.25047       -0.14893
C         -0.37213       -1.07826        0.12151
C         -0.80022       -1.62318       -1.24304
C          0.98248       -0.38603        0.00849
C          2.12517       -1.08605        0.41201
C          3.38853       -0.52413        0.29207
C          3.53399        0.77169       -0.19925
C          2.40845        1.48101       -0.59520
C          1.14323        0.90255       -0.49867
C         -1.34003        0.15007        2.09025
H         -2.27773        2.30807        0.57344
H         -3.72481        1.93759       -0.38808
H         -2.15898        2.08495       -1.16025
H         -2.10410        0.87166        2.34613
H         -0.37490        0.55401        2.37529
H         -1.52627       -0.75132        2.66724
H         -0.27005       -1.91353        0.80757
H          2.02398       -2.07983        0.81304
H          4.25432       -1.08220        0.60153
H          4.51035        1.21551       -0.27544
H          2.50761        2.48050       -0.97975
H          0.28313        1.46858       -0.80454
H         -0.94849       -0.83813       -1.97013
H         -1.68987       -2.22306       -1.18464
H          0.01539       -2.24237       -1.60984
