28
../min.c.60.o.75.log	Energy: -350348.5344508
N          1.50312        0.40868       -0.23457
O          1.58874       -1.82352        0.19944
C          3.65420       -0.75284       -0.33145
C          2.14170       -0.80374       -0.19438
C          0.51246        0.58835        0.84831
C          0.59765        1.99581        1.44330
C         -0.88099        0.18898        0.37319
C         -1.32449       -1.11379        0.62754
C         -2.58621       -1.53144        0.22784
C         -3.43734       -0.64999       -0.43568
C         -3.01499        0.64871       -0.68419
C         -1.74864        1.06616       -0.27579
C          1.30890        1.16288       -1.46625
H          3.99372       -0.01875       -1.05123
H          4.05222       -1.72805       -0.57493
H          4.02473       -0.45382        0.64383
H          2.16908        1.03189       -2.11168
H          1.22070        2.21786       -1.24785
H          0.42653        0.83660       -2.00480
H          0.79823       -0.10198        1.62420
H         -0.67019       -1.80392        1.12115
H         -2.90540       -2.53770        0.43321
H         -4.41555       -0.97037       -0.74738
H         -3.66632        1.34136       -1.18732
H         -1.45575        2.08291       -0.46583
H          0.33371        2.77758        0.74211
H          1.60736        2.18629        1.79038
H         -0.07834        2.07301        2.28795
