28
../min.c.60.o.360.log	Energy: -350363.0991236
N         -1.38429        0.18676        0.28804
O         -2.58553       -0.65263       -1.45289
C         -3.50874       -0.99374        0.72096
C         -2.45914       -0.47455       -0.24743
C         -0.37772        0.77657       -0.62040
C         -0.48390        2.30316       -0.64161
C          1.01175        0.22837       -0.31099
C          1.24396       -1.14014       -0.48949
C          2.48931       -1.69485       -0.22995
C          3.53486       -0.88906        0.21650
C          3.32006        0.47082        0.39349
C          2.06809        1.02490        0.12847
C         -1.21848        0.40327        1.71955
H         -3.10501       -1.79342        1.33305
H         -4.33143       -1.37837        0.13757
H         -3.86516       -0.21324        1.38315
H         -1.41333       -0.50068        2.28078
H         -1.86638        1.19010        2.09514
H         -0.19510        0.68591        1.91099
H         -0.65148        0.42132       -1.59975
H          0.44229       -1.76670       -0.83914
H          2.64639       -2.74834       -0.37843
H          4.50068       -1.31662        0.41799
H          4.12015        1.10383        0.73383
H          1.93149        2.08083        0.26790
H         -0.29132        2.74953        0.32867
H         -1.48496        2.58513       -0.94680
H          0.21727        2.72596       -1.35282
