28
../min.c.60.o.15.log	Energy: -350362.7389479
N         -1.43518        0.36495        0.24246
O         -2.31376       -1.04025       -1.31699
C         -3.40288       -1.01432        0.80608
C         -2.33217       -0.58118       -0.18133
C         -0.40052        0.80960       -0.71572
C         -0.44661        2.32699       -0.90960
C          0.96187        0.23557       -0.33981
C          1.17872       -1.13613       -0.51295
C          2.39432       -1.71654       -0.17922
C          3.42626       -0.93316        0.33385
C          3.22748        0.43000        0.50433
C          2.00399        1.00913        0.16914
C         -1.26351        0.72418        1.64427
H         -2.96947       -1.44746        1.70084
H         -4.02464       -1.74909        0.31772
H         -4.01220       -0.16831        1.10484
H         -0.78380       -0.06570        2.21374
H         -2.21218        0.96297        2.10593
H         -0.63979        1.60128        1.70878
H         -0.68519        0.36363       -1.65237
H          0.38872       -1.74342       -0.91802
H          2.53971       -2.77215       -0.32457
H          4.37030       -1.37983        0.59000
H          4.01826        1.04590        0.89444
H          1.87990        2.06774        0.30369
H         -0.23763        2.88713       -0.00538
H         -1.43378        2.61107       -1.25511
H          0.27633        2.62870       -1.65994
