28
../min.c.45.o.255.log	Energy: -350339.3833741
N         -1.33297       -0.08387        0.39772
O         -3.48851        0.58229        0.10066
C         -2.99977       -1.68270       -0.46963
C         -2.63124       -0.28788        0.00753
C         -0.45084        0.51680       -0.62568
C         -0.72949        2.01355       -0.78159
C          1.00879        0.17399       -0.34477
C          1.41446       -1.16057       -0.45876
C          2.73056       -1.53149       -0.22219
C          3.67426       -0.57126        0.13768
C          3.28691        0.75694        0.24994
C          1.96438        1.12625        0.00663
C         -0.93310        0.03348        1.79411
H         -2.32390       -2.01669       -1.24995
H         -4.01991       -1.70408       -0.82459
H         -2.88551       -2.36774        0.36541
H         -1.67484       -0.45648        2.41383
H         -0.85563        1.06432        2.13085
H          0.01541       -0.45889        1.94672
H         -0.70759        0.03888       -1.56775
H          0.68980       -1.90930       -0.72641
H          3.02111       -2.56262       -0.31726
H          4.69416       -0.85702        0.32263
H          4.00606        1.50814        0.52354
H          1.69254        2.16036        0.09760
H         -0.54983        2.55180        0.14212
H         -1.76602        2.16676       -1.04860
H         -0.10643        2.44873       -1.55713
