28
../min.c.90.o.0.log	Energy: -350361.9062936
N         -1.44011        0.33094        0.16891
O         -1.93651       -1.56851       -0.98177
C         -3.37851       -1.04016        0.84465
C         -2.18898       -0.79265       -0.06793
C         -0.39288        0.70413       -0.80596
C         -0.48484        2.18763       -1.17059
C          0.97490        0.21766       -0.33752
C          1.29054       -1.13687       -0.49313
C          2.51439       -1.63952       -0.07424
C          3.45712       -0.79276        0.50548
C          3.15802        0.55331        0.66481
C          1.92795        1.05491        0.24053
C         -1.73910        1.27271        1.24001
H         -3.05338       -1.28054        1.85119
H         -3.92421       -1.88188        0.44544
H         -4.03146       -0.17696        0.89610
H         -2.19339        0.77000        2.07894
H         -2.39779        2.07320        0.91751
H         -0.81505        1.70688        1.59668
H         -0.63260        0.14660       -1.69644
H          0.56585       -1.79291       -0.93796
H          2.73553       -2.68363       -0.20650
H          4.40837       -1.17809        0.82678
H          3.87865        1.21739        1.10838
H          1.73000        2.10441        0.36131
H         -0.28024        2.85645       -0.34445
H         -1.47775        2.41063       -1.54542
H          0.22872        2.40963       -1.95644
