28
../min.c.75.o.315.log	Energy: -350358.2099901
N         -1.36126        0.09825        0.38123
O         -2.71845       -0.19784       -1.42119
C         -3.27435       -1.44383        0.53655
C         -2.46596       -0.42040       -0.24327
C         -0.39565        0.73169       -0.54216
C         -0.55286        2.25401       -0.54250
C          1.01480        0.21091       -0.28455
C          1.26602       -1.15358       -0.46794
C          2.53105       -1.68346       -0.25611
C          3.57811       -0.85593        0.14471
C          3.34486        0.50063        0.32387
C          2.07081        1.02813        0.11599
C         -1.37060        0.54607        1.76794
H         -2.61344       -2.14599        1.03032
H         -3.91512       -1.96267       -0.16069
H         -3.89673       -0.97694        1.29366
H         -1.84842       -0.18990        2.40022
H         -1.88485        1.49439        1.89057
H         -0.34907        0.65573        2.10436
H         -0.67782        0.39140       -1.52166
H          0.46425       -1.79991       -0.77845
H          2.70221       -2.73475       -0.40517
H          4.55955       -1.26405        0.30734
H          4.14592        1.15006        0.62934
H          1.91696        2.08091        0.26122
H         -0.31473        2.70412        0.41514
H         -1.57872        2.50027       -0.78969
H          0.08907        2.70690       -1.29071
