28
../min.c.45.o.105.log	Energy: -350339.4872884
N         -1.42163        0.20937        0.45386
O         -2.05206       -1.84602       -0.29200
C         -3.73661       -0.15613       -0.32176
C         -2.33469       -0.67789       -0.05453
C         -0.49844        0.78604       -0.54689
C         -0.63982        2.30852       -0.61220
C          0.92395        0.28521       -0.31692
C          1.17458       -1.08699       -0.43017
C          2.45210       -1.59862       -0.25074
C          3.50828       -0.74733        0.06797
C          3.27387        0.61578        0.18509
C          1.99135        1.12760       -0.00956
C         -0.99342        0.19681        1.84671
H         -4.15362        0.24118        0.59832
H         -4.36630       -0.94400       -0.70870
H         -3.69212        0.66564       -1.03001
H         -0.28192       -0.59201        2.06824
H         -1.85888        0.07150        2.48842
H         -0.54178        1.15002        2.08305
H         -0.81134        0.39810       -1.51030
H          0.36089       -1.75296       -0.64813
H          2.62111       -2.65617       -0.34799
H          4.49798       -1.14157        0.21499
H          4.08145        1.28400        0.42616
H          1.84191        2.18708        0.08136
H         -0.39408        2.78211        0.33171
H         -1.66540        2.56509       -0.85057
H          0.00303        2.72668       -1.37962
