28
../min.c.45.o.15.log	Energy: -350362.4579261
N         -1.40512        0.24197        0.32856
O         -2.60883       -0.51904       -1.44635
C         -3.47767       -1.04137        0.71387
C         -2.45579       -0.43573       -0.23374
C         -0.40492        0.83169       -0.58694
C         -0.48465        2.36001       -0.57740
C          0.98144        0.25957       -0.30835
C          1.22895       -1.07852       -0.63519
C          2.47103       -1.65354       -0.40602
C          3.49983       -0.89737        0.15221
C          3.27066        0.43321        0.47437
C          2.02034        1.00657        0.24491
C         -1.05713        0.13693        1.73974
H         -3.02631       -1.76455        1.38395
H         -4.23142       -1.53030        0.11553
H         -3.94373       -0.26957        1.31660
H         -0.53395       -0.78594        1.96766
H         -1.93885        0.20495        2.36068
H         -0.41047        0.96023        2.00394
H         -0.69457        0.50274       -1.56970
H          0.44198       -1.66516       -1.07685
H          2.64002       -2.68287       -0.66786
H          4.46417       -1.33981        0.32685
H          4.05833        1.02844        0.90102
H          1.87162        2.03969        0.49781
H         -0.30439        2.78322        0.40553
H         -1.47583        2.66447       -0.89221
H          0.23731        2.78422       -1.26687
