28
../min.c.105.o.240.log	Energy: -350341.5044468
N         -1.58932        0.21560        0.19952
O         -3.28123       -1.09071       -0.58111
C         -1.18973       -2.17487       -0.20093
C         -2.09940       -0.96065       -0.28587
C         -0.53907        0.89490       -0.58905
C         -0.65267        2.41572       -0.46099
C          0.84080        0.36001       -0.21918
C          1.80336        0.24377       -1.22841
C          3.09146       -0.18879       -0.94297
C          3.43305       -0.55848        0.35589
C          2.49325       -0.43309        1.36970
C          1.20731        0.02422        1.08331
C         -2.20517        0.95636        1.29295
H         -0.22756       -2.02236       -0.67005
H         -1.68391       -3.02824       -0.64353
H         -1.00869       -2.36115        0.85236
H         -2.84175        0.27970        1.84837
H         -2.82226        1.78663        0.96836
H         -1.44457        1.32654        1.96626
H         -0.70923        0.65956       -1.63467
H          1.54463        0.50156       -2.24142
H          3.81608       -0.27070       -1.73350
H          4.42296       -0.91694        0.57392
H          2.74904       -0.70040        2.37948
H          0.48808        0.09318        1.87741
H         -0.44491        2.76375        0.54187
H         -1.63731        2.75336       -0.75984
H          0.07529        2.87740       -1.11938
