28
../min.c.15.o.120.log	Energy: -350337.7136549
N         -1.37039        0.00457        0.50508
O         -2.56050       -1.73636       -0.35002
C         -3.73204        0.33017       -0.12363
C         -2.49852       -0.55313       -0.03867
C         -0.51791        0.62654       -0.53066
C         -0.74843        2.13802       -0.59749
C          0.94710        0.26352       -0.30962
C          1.39569       -0.99065       -0.73902
C          2.71571       -1.37919       -0.55839
C          3.62685       -0.50710        0.03413
C          3.19998        0.74718        0.44804
C          1.87015        1.12954        0.27471
C         -0.71757       -0.52555        1.69519
H         -3.98082        0.65481        0.88148
H         -4.55391       -0.22754       -0.54903
H         -3.55412        1.22103       -0.71234
H         -0.11626       -1.40882        1.51700
H         -1.48516       -0.77916        2.41795
H         -0.09807        0.24498        2.12739
H         -0.78950        0.20315       -1.49186
H          0.69642       -1.67066       -1.19383
H          3.03605       -2.35141       -0.88775
H          4.65184       -0.80313        0.16761
H          3.89406        1.43136        0.90258
H          1.56851        2.10605        0.60341
H         -0.60189        2.59829        0.37270
H         -1.76094        2.35973       -0.90808
H         -0.07560        2.60422       -1.31018
