28
../min.c.90.o.345.log	Energy: -350361.6132595
N         -1.41837        0.30929        0.22228
O         -2.12358       -1.34919       -1.16715
C         -3.32793       -1.10895        0.87885
C         -2.25591       -0.71896       -0.12498
C         -0.38597        0.70491       -0.75954
C         -0.48077        2.19714       -1.08579
C          0.98821        0.20543       -0.32471
C          1.26802       -1.16111       -0.43814
C          2.49694       -1.67499       -0.04885
C          3.48069       -0.82803        0.45788
C          3.21758        0.52992        0.57414
C          1.98154        1.04242        0.18144
C         -1.69898        1.22497        1.32063
H         -2.87826       -1.41312        1.81745
H         -3.87907       -1.93892        0.46313
H         -4.01164       -0.29185        1.07952
H         -2.15779        0.70492        2.14696
H         -2.34627        2.04414        1.02312
H         -0.76589        1.63376        1.68323
H         -0.64011        0.17244       -1.65949
H          0.51432       -1.81735       -0.83453
H          2.69063       -2.72816       -0.14836
H          4.43573       -1.22265        0.75558
H          3.96985        1.19397        0.96159
H          1.80976        2.09945        0.26984
H         -0.26552        2.84470       -0.24513
H         -1.47907        2.42836       -1.44087
H          0.22013        2.44220       -1.87638
