28
../min.c.360.o.315.log	Energy: -350346.6861921
N         -1.34579       -0.24232        0.24008
O         -3.23307        0.96293       -0.16482
C         -3.48787       -1.40641       -0.03992
C         -2.70173       -0.11211        0.08575
C         -0.44394        0.58790       -0.58679
C         -0.71031        2.07837       -0.36378
C          1.01482        0.25122       -0.29426
C          1.66225       -0.67852       -1.11584
C          2.99362       -1.01246       -0.90856
C          3.70842       -0.42395        0.13238
C          3.08586        0.51790        0.93989
C          1.75145        0.85894        0.72136
C         -0.73965       -1.20040        1.15565
H         -3.37396       -1.71808       -1.07397
H         -4.53629       -1.22203        0.14913
H         -3.13836       -2.21290        0.58718
H         -1.50992       -1.64854        1.76732
H         -0.05738       -0.70423        1.82793
H         -0.20475       -1.99365        0.64672
H         -0.63329        0.34826       -1.62769
H          1.11864       -1.14173       -1.92074
H          3.47221       -1.72958       -1.55150
H          4.73814       -0.68543        0.29756
H          3.63097        0.99191        1.73644
H          1.29218        1.59297        1.35676
H         -0.77624        2.30219        0.69410
H         -1.63451        2.38685       -0.81760
H          0.10012        2.66398       -0.78897
