28
../min.c.30.o.30.log	Energy: -350359.9539004
N         -1.39329        0.13439        0.37268
O         -2.67323       -0.35534       -1.44399
C         -3.61052       -0.89656        0.68272
C         -2.50674       -0.39040       -0.23078
C         -0.42555        0.79448       -0.52959
C         -0.55611        2.31756       -0.45621
C          0.98494        0.26944       -0.28108
C          1.31925       -0.99988       -0.76652
C          2.58441       -1.53302       -0.56448
C          3.56466       -0.78252        0.08226
C          3.25251        0.48551        0.55279
C          1.97117        1.00590        0.37353
C         -0.91617       -0.30528        1.67753
H         -3.31983       -1.79996        1.20825
H         -4.47237       -1.11231        0.06933
H         -3.86577       -0.14412        1.41974
H         -0.34110       -1.22211        1.61944
H         -1.74792       -0.45536        2.35044
H         -0.28834        0.46170        2.10622
H         -0.69948        0.49671       -1.52603
H          0.57514       -1.57442       -1.29097
H          2.81644       -2.51521       -0.93618
H          4.55180       -1.18551        0.22105
H          4.00010        1.07410        1.05418
H          1.75672        1.99080        0.74417
H         -0.39941        2.69784        0.54818
H         -1.55471        2.60372       -0.76536
H          0.15652        2.79479       -1.12028
