28
../min.c.345.o.285.log	Energy: -350337.0417772
N          1.33279       -0.39025       -0.19869
O          3.04257        1.06496       -0.56938
C          3.64877       -1.07164        0.30339
C          2.65986       -0.04763       -0.22810
C          0.43672        0.29075        0.76028
C          0.83003        1.75975        0.93219
C         -1.02057        0.13555        0.33694
C         -1.85090       -0.69481        1.09831
C         -3.19708       -0.83884        0.78955
C         -3.73608       -0.17888       -0.31217
C         -2.93038        0.66814       -1.06060
C         -1.58363        0.82651       -0.73502
C          0.73624       -1.33527       -1.13390
H          3.53011       -1.10802        1.38311
H          4.66226       -0.78312        0.06393
H          3.44276       -2.06668       -0.07452
H          1.52797       -1.89920       -1.61740
H          0.17134       -0.83708       -1.91063
H          0.09087       -2.04263       -0.63094
H          0.53330       -0.19985        1.72616
H         -1.44294       -1.22242        1.94248
H         -3.81827       -1.47910        1.39028
H         -4.77428       -0.30262       -0.56291
H         -3.33957        1.20183       -1.89968
H         -0.97324        1.48374       -1.32798
H          0.85878        2.27756       -0.01436
H          1.80042        1.86471        1.39469
H          0.10258        2.24314        1.57837
