28
../min.c.15.o.15.log	Energy: -350360.1712293
N         -1.36577       -0.06831        0.34030
O         -2.98244        0.41058       -1.18792
C         -3.55768       -1.19425        0.48179
C         -2.61275       -0.22421       -0.20752
C         -0.42832        0.81110       -0.39055
C         -0.63278        2.27696       -0.00111
C          1.00637        0.31843       -0.22978
C          1.45253       -0.71744       -1.05835
C          2.74786       -1.20586       -0.95952
C          3.63576       -0.65269       -0.03905
C          3.21515        0.39405        0.76976
C          1.91083        0.87762        0.67173
C         -0.80851       -0.99148        1.32050
H         -3.16912       -2.20641        0.47266
H         -4.49582       -1.17029       -0.05219
H         -3.72708       -0.90590        1.51303
H         -1.58849       -1.35996        1.96903
H         -0.09513       -0.47628        1.94327
H         -0.31128       -1.83804        0.86118
H         -0.67976        0.72273       -1.43681
H          0.77657       -1.14434       -1.77904
H          3.06844       -2.00631       -1.60229
H          4.64107       -1.02657        0.03558
H          3.89499        0.83815        1.47483
H          1.61037        1.68995        1.30670
H         -0.50086        2.43419        1.06434
H         -1.63961        2.57504       -0.26215
H          0.06488        2.91433       -0.53427
