28
../min.c.90.o.300.log	Energy: -350352.5528208
N         -1.40241        0.26870        0.35857
O         -2.62894       -0.71505       -1.28650
C         -2.84837       -1.63880        0.90276
C         -2.35139       -0.60899       -0.09800
C         -0.43618        0.68592       -0.68002
C         -0.56983        2.17925       -0.98707
C          0.96883        0.20550       -0.33057
C          1.30518       -1.12586       -0.60069
C          2.55982       -1.62628       -0.28183
C          3.51066       -0.80171        0.31613
C          3.19338        0.52307        0.58272
C          1.93167        1.02212        0.26063
C         -1.63134        1.17366        1.47759
H         -2.09229       -2.41688        0.92914
H         -3.77950       -2.06757        0.56022
H         -2.96613       -1.26022        1.90816
H         -2.18858        0.67539        2.25778
H         -2.18103        2.06050        1.18093
H         -0.67985        1.47239        1.89693
H         -0.72893        0.16851       -1.57358
H          0.57981       -1.76878       -1.06867
H          2.79835       -2.65162       -0.50204
H          4.48412       -1.18673        0.56172
H          3.92165        1.17084        1.03757
H          1.71432        2.05364        0.46863
H         -0.32450        2.81953       -0.14865
H         -1.58943        2.39166       -1.28816
H          0.08579        2.45142       -1.80777
