28
../min.c.30.o.285.log	Energy: -350343.2665692
N         -1.33751       -0.18824        0.33805
O         -3.27357        0.80630       -0.32598
C         -3.31857       -1.56738       -0.08536
C         -2.67753       -0.19622        0.04883
C         -0.45848        0.53635       -0.60460
C         -0.71321        2.04426       -0.54532
C          1.00586        0.20157       -0.33893
C          1.52220       -0.99128       -0.85767
C          2.84672       -1.34866       -0.64895
C          3.68987       -0.51380        0.08198
C          3.19388        0.67746        0.59351
C          1.86175        1.03209        0.38297
C         -0.80927       -0.49642        1.66076
H         -2.99933       -1.95044       -1.04984
H         -4.39689       -1.49241       -0.07339
H         -2.98075       -2.26550        0.67103
H         -1.58869       -0.96415        2.25186
H         -0.50095        0.40225        2.18574
H          0.02880       -1.17532        1.60876
H         -0.70298        0.18135       -1.59913
H          0.87828       -1.64190       -1.42358
H          3.22366       -2.26958       -1.05707
H          4.71728       -0.78771        0.24160
H          3.83556        1.33381        1.15369
H          1.50544        1.96003        0.78684
H         -0.68129        2.40248        0.47809
H         -1.68459        2.28346       -0.94057
H          0.03830        2.58300       -1.11586
