28
../min.c.75.o.270.log	Energy: -350343.7555744
N         -1.35499        0.01203        0.48201
O         -3.13101        0.32337       -0.90622
C         -2.82970       -1.88214       -0.04642
C         -2.50129       -0.40183       -0.14573
C         -0.45171        0.68097       -0.47868
C         -0.65490        2.19773       -0.45964
C          0.98689        0.21555       -0.27682
C          1.25650       -1.15699       -0.32177
C          2.54830       -1.63848       -0.16257
C          3.60292       -0.75387        0.05444
C          3.34956        0.60996        0.10472
C          2.05194        1.09054       -0.06825
C         -1.32709        0.46124        1.86802
H         -2.14884       -2.39972       -0.71566
H         -3.84620       -2.07060       -0.36133
H         -2.66192       -2.27012        0.95163
H         -1.83381       -0.26274        2.49644
H         -1.80462        1.42692        2.00691
H         -0.29717        0.52215        2.19122
H         -0.75317        0.33451       -1.45679
H          0.44850       -1.84880       -0.47373
H          2.73364       -2.69716       -0.20430
H          4.60386       -1.12519        0.18300
H          4.15488        1.30290        0.27186
H          1.88468        2.15003       -0.03066
H         -0.35039        2.63904        0.48321
H         -1.70127        2.41310       -0.62196
H         -0.08381        2.67843       -1.24789
