28
../min.c.60.o.210.log	Energy: -350356.1829120
N         -1.42476        0.18503        0.40937
O         -3.56523       -0.58288        0.49343
C         -2.31029       -1.16410       -1.45120
C         -2.51377       -0.45587       -0.12228
C         -0.44543        0.81425       -0.50239
C         -0.54009        2.34056       -0.44219
C          0.95415        0.26189       -0.25134
C          1.09446       -1.10580        0.01012
C          2.34596       -1.67216        0.20878
C          3.48844       -0.87556        0.17005
C          3.36325        0.48446       -0.07779
C          2.10642        1.04482       -0.30376
C         -1.22146        0.34771        1.84317
H         -2.53798       -0.51613       -2.29201
H         -3.01758       -1.98133       -1.47471
H         -1.30843       -1.54654       -1.57530
H         -1.83114       -0.37692        2.36151
H         -1.50605        1.33552        2.19135
H         -0.18085        0.17820        2.07706
H         -0.72349        0.53415       -1.50557
H          0.22377       -1.72803        0.08178
H          2.43000       -2.72579        0.40696
H          4.45780       -1.30956        0.33735
H          4.23657        1.11117       -0.10629
H          2.04142        2.09812       -0.49912
H         -0.19038        2.73478        0.50531
H         -1.57253        2.64317       -0.57459
H          0.04423        2.79585       -1.23376
