28
../min.c.75.o.360.log	Energy: -350363.0412861
N         -1.41051        0.29897        0.22650
O         -2.27920       -1.18026       -1.26871
C         -3.44596       -0.97350        0.80257
C         -2.33487       -0.63018       -0.17550
C         -0.37651        0.74309       -0.73263
C         -0.45243        2.25430       -0.96215
C          0.99429        0.20818       -0.33054
C          1.21979       -1.17112       -0.40316
C          2.44552       -1.71590       -0.04719
C          3.47765       -0.88904        0.39195
C          3.26968        0.48148        0.46398
C          2.03712        1.02517        0.10360
C         -1.45648        0.95242        1.52821
H         -3.05109       -1.51825        1.65370
H         -4.15413       -1.60229        0.28434
H         -3.94859       -0.08776        1.17256
H         -1.79436        0.27152        2.29495
H         -2.10134        1.82642        1.53033
H         -0.45605        1.26213        1.79585
H         -0.64255        0.26518       -1.66035
H          0.42811       -1.81232       -0.74798
H          2.59750       -2.77833       -0.11568
H          4.42882       -1.30841        0.66719
H          4.06022        1.13048        0.79670
H          1.90692        2.08995        0.16035
H         -0.24675        2.83442       -0.06984
H         -1.44608        2.51528       -1.30886
H          0.25968        2.55192       -1.72394
