28
../min.c.300.o.30.log	Energy: -350348.7352324
N          1.36265       -0.11263        0.59267
O          2.98879        0.96896       -0.57532
C          3.20410       -1.40250       -0.41998
C          2.49675       -0.07979       -0.17682
C          0.34970        0.95091        0.42202
C          0.70928        1.86992       -0.74774
C         -1.01686        0.34679        0.11467
C         -2.13131        0.82907        0.81036
C         -3.40570        0.34824        0.54255
C         -3.58946       -0.65545       -0.40603
C         -2.49372       -1.13973       -1.10717
C         -1.21620       -0.64735       -0.84212
C          1.15066       -1.09024        1.65235
H          3.92047       -1.58369        0.37528
H          3.75600       -1.31925       -1.34560
H          2.52194       -2.24185       -0.46892
H          2.08525       -1.55088        1.93658
H          0.44590       -1.86561        1.37211
H          0.75913       -0.57643        2.52250
H          0.27901        1.53002        1.33697
H         -1.99994        1.59173        1.55822
H         -4.24924        0.73587        1.08562
H         -4.57395       -1.03945       -0.60433
H         -2.62308       -1.90797       -1.84853
H         -0.37513       -1.04276       -1.38324
H          0.89564        1.31845       -1.65651
H          1.53533        2.52280       -0.54804
H         -0.16957        2.48652       -0.93070
