28
../min.c.15.o.0.log	Energy: -350359.8569923
N         -1.36007       -0.10686        0.29539
O         -3.09155        0.58505       -1.00908
C         -3.51596       -1.30531        0.38402
C         -2.64955       -0.18352       -0.16365
C         -0.42210        0.79527       -0.40653
C         -0.63833        2.25012        0.01637
C          1.01541        0.31469       -0.23469
C          1.48267       -0.70370       -1.07322
C          2.78410       -1.17528       -0.97033
C          3.65633       -0.62292       -0.03481
C          3.21388        0.40522        0.78613
C          1.90370        0.87179        0.68402
C         -0.80652       -1.04172        1.26656
H         -3.03927       -2.27060        0.26043
H         -4.44705       -1.29089       -0.16268
H         -3.72850       -1.16508        1.43824
H         -1.58728       -1.41460        1.91102
H         -0.09133       -0.53710        1.89620
H         -0.31202       -1.88575        0.79941
H         -0.66281        0.72855       -1.45864
H          0.81892       -1.12967       -1.80566
H          3.12130       -1.96187       -1.62165
H          4.66631       -0.98338        0.04269
H          3.88104        0.84820        1.50384
H          1.58716        1.67028        1.32824
H         -0.52025        2.37691        1.08757
H         -1.64151        2.55158       -0.24930
H          0.06642        2.90324       -0.48807
