38
../min.omega.0.chi1.0.phi1.120.log	Energy: -505580.5345979
N         -0.24677        0.70651        0.02136
C         -0.26902        3.20029        0.16184
C          0.41490        1.89334       -0.19457
C          0.44977       -0.58801        0.19899
C         -0.12010       -1.66659       -0.72299
C          1.97534       -0.57938        0.13534
C          2.69523       -0.48854        1.33266
C          4.08055       -0.56905        1.34714
C          4.77902       -0.75504        0.15543
C          4.07779       -0.85480       -1.03820
C          2.68545       -0.76938       -1.04953
C         -1.57895        0.71507        0.58220
O          1.53554        1.94579       -0.68167
C         -2.63693        0.06985       -0.34081
C         -4.69932       -1.19617       -0.59050
C         -3.83523       -0.75062        1.68856
N         -3.68097       -0.58408        0.25242
O         -2.55218        0.21766       -1.54916
H         -1.17696        3.35176       -0.41130
H          0.42968        3.98605       -0.07944
H         -0.51307        3.25640        1.21757
H         -1.56025        0.22700        1.54888
H         -1.92882        1.71926        0.74970
H          0.21637       -0.88954        1.21670
H          2.16580       -0.35397        2.26070
H          4.61228       -0.49481        2.27911
H          5.85230       -0.82203        0.16194
H          4.60643       -0.99373       -1.96433
H          2.16558       -0.82682       -1.98689
H         -0.10707       -1.35047       -1.75704
H         -1.14283       -1.91554       -0.47155
H          0.46589       -2.57241       -0.61940
H         -4.75388       -2.26305       -0.39788
H         -3.70045        0.18108        2.22302
H         -4.44526       -1.03316       -1.62290
H         -3.15419       -1.49182        2.09620
H         -5.67104       -0.75766       -0.38722
H         -4.84431       -1.08684        1.88095
38
../min.omega.0.chi1.0.phi1.180.log	Energy: -505578.4245646
N         -0.36238        0.81698       -0.11597
C         -0.02372        3.21114        0.54284
C          0.41324        1.95147       -0.18186
C          0.27624       -0.51612       -0.02930
C         -0.26515       -1.42137       -1.13634
C          1.80220       -0.56880       -0.01692
C          2.44230       -0.64592        1.22581
C          3.81937       -0.78711        1.32357
C          4.59222       -0.86677        0.16641
C          3.97212       -0.79798       -1.07341
C          2.58818       -0.64898       -1.16587
C         -1.56610        0.95205        0.67277
O          1.42915        1.99866       -0.86124
C         -2.48093       -0.28806        0.78597
C         -4.42853       -1.53199        0.02204
C         -3.54578        0.27946       -1.40123
N         -3.47033       -0.44737       -0.14422
O         -2.35856       -1.03095        1.74633
H         -0.94075        3.61571        0.12818
H          0.76458        3.93507        0.40674
H         -0.18167        3.04532        1.60184
H         -1.33814        1.15353        1.71360
H         -2.15379        1.77667        0.30035
H         -0.03449       -0.92898        0.91911
H          1.85371       -0.60368        2.12656
H          4.28546       -0.84507        2.29101
H          5.65927       -0.98195        0.23432
H          4.55835       -0.85208       -1.97333
H          2.13930       -0.57024       -2.13662
H         -0.04898       -1.00385       -2.11236
H         -1.33561       -1.55281       -1.06568
H          0.19055       -2.40268       -1.07135
H         -5.41732       -1.17698       -0.24621
H         -2.64038        0.83288       -1.59058
H         -4.42855       -1.85718        1.04817
H         -4.39150        0.96074       -1.40730
H         -4.17779       -2.37404       -0.61699
H         -3.67190       -0.42545       -2.21562
38
../min.omega.0.chi1.0.phi1.210.log	Energy: -505579.7014673
N          0.24718        0.78553       -0.21396
C          0.32117        3.27336       -0.28991
C         -0.44244        1.96485       -0.37716
C         -0.41054       -0.52237        0.00807
C          0.10838       -1.18070        1.28691
C         -1.93663       -0.54118        0.05501
C         -2.62872       -1.14174       -1.00348
C         -4.00758       -1.29341       -0.96403
C         -4.72872       -0.85222        0.14410
C         -4.05457       -0.26182        1.20399
C         -2.66819       -0.11267        1.16202
C          1.66940        0.86058        0.03299
O         -1.63913        2.02031       -0.62354
C          2.48491       -0.34189       -0.49291
C          4.50534       -1.68861       -0.33509
C          4.22975        0.23831        1.19575
N          3.69093       -0.56617        0.11107
O          2.09349       -1.00655       -1.43851
H          0.93132        3.35246        0.60264
H         -0.41772        4.05964       -0.28784
H          0.96306        3.41045       -1.15427
H          2.08818        1.70979       -0.48528
H          1.87233        0.99923        1.08827
H         -0.12158       -1.14487       -0.82130
H         -2.08210       -1.48467       -1.86411
H         -4.51817       -1.75428       -1.79092
H         -5.79725       -0.96926        0.17732
H         -4.59931        0.08552        2.06400
H         -2.17246        0.36019        1.99030
H         -0.07844       -0.56380        2.15953
H          1.16762       -1.40262        1.25693
H         -0.40486       -2.12332        1.43069
H          5.44315       -1.33439       -0.75092
H          3.76935        0.00601        2.15149
H          3.96894       -2.23691       -1.08908
H          4.12660        1.29857        1.00506
H          4.72307       -2.34529        0.50102
H          5.28725        0.02906        1.27573
38
../min.omega.0.chi1.0.phi1.240.log	Energy: -505583.0139901
N          0.25554        0.80153        0.15958
C          0.49275        3.17586       -0.55851
C         -0.35678        1.94588       -0.29708
C         -0.43629       -0.47946        0.42965
C         -0.12029       -0.97522        1.84120
C         -1.94207       -0.53026        0.18154
C         -2.40126       -1.10114       -1.01148
C         -3.75860       -1.26411       -1.24996
C         -4.68957       -0.86731       -0.29158
C         -4.24691       -0.30850        0.89931
C         -2.88203       -0.14464        1.13655
C          1.68312        0.77666        0.38471
O         -1.56096        2.03464       -0.49175
C          2.43165       -0.27474       -0.46491
C          4.42159       -1.64448       -0.77376
C          4.33343       -0.08226        1.13982
N          3.69243       -0.60863       -0.05438
O          1.92632       -0.73967       -1.47368
H          0.99399        3.52586        0.33776
H         -0.18308        3.94382       -0.90084
H          1.23951        2.99952       -1.32498
H          2.12333        1.72678        0.13607
H          1.89152        0.61480        1.43295
H         -0.00833       -1.18578       -0.26318
H         -1.68873       -1.40891       -1.75649
H         -4.09009       -1.70103       -2.17520
H         -5.74190       -0.99494       -0.47318
H         -4.95602        0.00335        1.64558
H         -2.56480        0.30366        2.06010
H         -0.36867       -0.23531        2.59464
H          0.92528       -1.23675        1.96180
H         -0.69421       -1.87094        2.04366
H          5.36885       -1.25457       -1.13122
H          4.04080       -0.62081        2.03735
H          3.83312       -1.97319       -1.61204
H          4.12480        0.96900        1.27899
H          4.61976       -2.48885       -0.12026
H          5.40395       -0.18347        1.02257
38
../min.omega.0.chi1.0.phi1.270.log	Energy: -505585.9065019
N          0.24951        0.90237        0.41477
C          0.76586        2.63368       -1.29842
C         -0.22908        1.81018       -0.50165
C         -0.51783       -0.25744        0.92321
C         -0.51941       -0.24527        2.45225
C         -1.93302       -0.43598        0.37836
C         -2.09325       -1.18454       -0.79383
C         -3.35537       -1.45486       -1.30351
C         -4.48983       -0.98700       -0.64263
C         -4.34424       -0.24795        0.52315
C         -3.07469        0.02525        1.03268
C          1.67755        0.76219        0.58901
O         -1.42314        2.02051       -0.66232
C          2.31552       -0.29668       -0.33801
C          4.22621       -1.70560       -0.87473
C          4.37649       -0.18020        1.05864
N          3.61711       -0.63711       -0.09402
O          1.67670       -0.77070       -1.26342
H          1.29227        3.34106       -0.66520
H          0.19335        3.18941       -2.02488
H          1.49155        2.01418       -1.81014
H          2.17745        1.70495        0.43117
H          1.87753        0.49452        1.61591
H          0.02773       -1.13196        0.59759
H         -1.21981       -1.54364       -1.30927
H         -3.45553       -2.02936       -2.20725
H         -5.46979       -1.19735       -1.03272
H         -5.21234        0.12182        1.03947
H         -2.99209        0.61270        1.92714
H         -0.95480        0.66913        2.83652
H          0.48017       -0.32823        2.86390
H         -1.09094       -1.08528        2.82988
H          5.19901       -1.38724       -1.23254
H          4.22727       -0.81821        1.92638
H          3.59379       -1.93583       -1.71399
H          4.12675        0.83573        1.32531
H          4.35570       -2.59832       -0.26902
H          5.42838       -0.19796        0.80524
38
../min.omega.0.chi1.0.phi1.300.log	Energy: -505583.5960873
N         -0.23269        0.84910        0.51312
C         -1.07330       -0.53119        2.43825
C          0.04574        0.11736        1.64451
C          0.72305        0.97298       -0.61102
C          0.91720        2.45488       -0.93413
C          2.06123        0.24929       -0.48040
C          2.11595       -1.09674       -0.86152
C          3.31351       -1.79776       -0.84689
C          4.49043       -1.16013       -0.45836
C          4.45048        0.17566       -0.08354
C          3.24492        0.87747       -0.09502
C         -1.60065        1.00434        0.07278
O          1.18778       -0.00884        2.06364
C         -2.32744       -0.31881       -0.25680
C         -4.36366       -1.51387       -0.77753
C         -4.46541        0.92819       -0.56556
N         -3.68914       -0.28657       -0.37634
O         -1.68843       -1.34796       -0.40403
H         -2.02865       -0.02556        2.39039
H         -0.74561       -0.57055        3.46670
H         -1.20277       -1.54087        2.07297
H         -2.16157        1.55025        0.81950
H         -1.61463        1.61707       -0.81654
H          0.23245        0.50668       -1.45699
H          1.20936       -1.59544       -1.15697
H          3.33123       -2.83239       -1.14015
H          5.42138       -1.69860       -0.44954
H          5.35148        0.67737        0.22198
H          3.24284        1.90467        0.21513
H          1.33812        2.98214       -0.08712
H         -0.02244        2.93909       -1.17824
H          1.57892        2.57609       -1.78444
H         -5.35253       -1.53090       -0.33556
H         -4.63200        1.13098       -1.62087
H         -3.80103       -2.36404       -0.43270
H         -3.98471        1.78598       -0.12458
H         -4.46412       -1.57455       -1.85800
H         -5.43000        0.80919       -0.08801
38
../min.omega.0.chi1.0.phi1.330.log	Energy: -505576.4629311
N         -0.23583        0.27394        0.14437
C         -1.33580       -1.63374        1.36337
C         -0.11239       -0.84262        0.93875
C          0.91637        0.93861       -0.50613
C          0.90582        2.43154       -0.17570
C          2.31500        0.36483       -0.29139
C          2.83742       -0.49173       -1.26782
C          4.13879       -0.96650       -1.18517
C          4.95517       -0.58266       -0.12270
C          4.45299        0.27344        0.84752
C          3.14363        0.74721        0.76286
C         -1.48056        0.80786       -0.36051
O          0.97350       -1.23699        1.34021
C         -2.65446       -0.15851       -0.63554
C         -5.03666       -0.62427       -0.54957
C         -4.13357        1.17434        0.88437
N         -3.88015        0.14555       -0.11133
O         -2.48167       -1.08932       -1.40554
H         -2.17868       -1.02082        1.65491
H         -1.02632       -2.22704        2.21036
H         -1.64629       -2.28881        0.56207
H         -1.80176        1.63993        0.24894
H         -1.29504        1.20777       -1.34878
H          0.73075        0.84123       -1.57055
H          2.21669       -0.79310       -2.09375
H          4.51648       -1.62701       -1.94525
H          5.96525       -0.94572       -0.05672
H          5.07191        0.57448        1.67401
H          2.77494        1.39289        1.53744
H          0.97179        2.59475        0.89385
H          0.00660        2.92353       -0.52744
H          1.74923        2.92037       -0.64836
H         -5.41130       -1.24503        0.25848
H         -4.23805        2.16021        0.44105
H         -4.75315       -1.25299       -1.37505
H         -3.35946        1.20876        1.63784
H         -5.82677        0.04957       -0.86339
H         -5.06018        0.93420        1.38761
38
../min.omega.0.chi1.15.phi1.120.log	Energy: -505582.1556368
N         -0.23795        0.49744       -0.23512
C         -0.26018        3.00021       -0.35703
C          0.38336        1.65572       -0.64179
C          0.52713       -0.74193        0.03154
C          0.17682       -1.83348       -0.98035
C          2.03841       -0.58109        0.17871
C          2.54041       -0.19919        1.42859
C          3.90467       -0.10383        1.66413
C          4.80645       -0.40570        0.64515
C          4.32479       -0.79415       -0.59723
C          2.95224       -0.88101       -0.83087
C         -1.50213        0.56770        0.46217
O          1.43470        1.63709       -1.26643
C         -2.65800       -0.16323       -0.25705
C         -4.87959       -1.09608       -0.21253
C         -4.08600        0.10185        1.77092
N         -3.75099       -0.50200        0.49140
O         -2.59333       -0.41017       -1.45036
H         -1.22559        3.09773       -0.84138
H          0.40561        3.74903       -0.75698
H         -0.38859        3.17283        0.70647
H         -1.38559        0.16194        1.45980
H         -1.82481        1.58849        0.58377
H          0.18188       -1.07845        1.00257
H          1.85340        0.02220        2.22867
H          4.26318        0.19247        2.63397
H          5.86529       -0.34001        0.82123
H          5.01062       -1.02493       -1.39276
H          2.60819       -1.16008       -1.80722
H          0.38157       -1.50135       -1.98986
H         -0.87007       -2.09071       -0.93800
H          0.75934       -2.72577       -0.77678
H         -5.43432       -1.71739        0.47988
H         -4.72010        0.97685        1.64476
H         -4.52002       -1.69946       -1.02808
H         -3.20771        0.39404        2.32288
H         -5.54643       -0.33515       -0.60977
H         -4.62462       -0.62063        2.37108
38
../min.omega.0.chi1.15.phi1.150.log	Energy: -505583.4342783
N         -0.38694        0.61179        0.10774
C         -0.18013        3.07003        0.54925
C          0.24575        1.80212       -0.16763
C          0.34199       -0.67507        0.03603
C         -0.19754       -1.51620       -1.12135
C          1.86586       -0.58664       -0.00274
C          2.54644       -0.51633        1.21870
C          3.93288       -0.49963        1.27612
C          4.67575       -0.56753        0.09875
C          4.01606       -0.64579       -1.11990
C          2.62206       -0.65336       -1.17234
C         -1.45220        0.60599        1.08473
O          1.11826        1.87680       -1.02144
C         -2.53802       -0.46434        0.83377
C         -4.44619       -1.30023       -0.40692
C         -3.34447        0.74581       -1.20215
N         -3.45588       -0.26098       -0.15907
O         -2.57853       -1.43659        1.57015
H         -1.16283        3.40050        0.22838
H          0.53729        3.83095        0.28318
H         -0.19875        2.95069        1.62633
H         -1.08499        0.38515        2.08074
H         -1.93759        1.56681        1.11578
H          0.09474       -1.18917        0.95503
H          1.98314       -0.48384        2.13629
H          4.43039       -0.44649        2.22807
H          5.75047       -0.56181        0.13505
H          4.57857       -0.69385       -2.03511
H          2.13972       -0.68824       -2.12907
H         -0.07989       -0.99377       -2.06301
H         -1.24868       -1.73553       -0.98988
H          0.32975       -2.46173       -1.17968
H         -5.38893       -0.83558       -0.67148
H         -2.97328        0.31393       -2.12670
H         -4.57408       -1.89445        0.48108
H         -2.68037        1.54256       -0.91618
H         -4.13840       -1.94662       -1.22496
H         -4.32382        1.17015       -1.39015
38
../min.omega.0.chi1.15.phi1.180.log	Energy: -505581.3875244
N         -0.38341        0.82698       -0.11599
C          0.09892        3.13138        0.73763
C          0.42164        1.94226       -0.14823
C          0.23109       -0.51048       -0.27748
C         -0.22676       -1.12510       -1.60064
C          1.74762       -0.58783       -0.11731
C          2.25571       -0.74494        1.17776
C          3.61605       -0.89241        1.40915
C          4.50467       -0.90102        0.33541
C          4.01560       -0.75611       -0.95542
C          2.64819       -0.59805       -1.18180
C         -1.50625        0.88927        0.79211
O          1.36819        2.02041       -0.91880
C         -2.41696       -0.35823        0.83613
C         -4.34753       -1.57690       -0.02278
C         -3.59115        0.44773       -1.21402
N         -3.38144       -0.49125       -0.12390
O         -2.28370       -1.15278        1.75269
H         -0.84793        3.58716        0.46878
H          0.88606        3.85432        0.58941
H          0.05249        2.85833        1.78537
H         -1.18657        0.97764        1.82400
H         -2.11436        1.75161        0.56160
H         -0.16503       -1.11264        0.52443
H          1.57538       -0.76343        2.01274
H          3.97971       -1.01267        2.41407
H          5.55955       -1.02190        0.50596
H          4.69212       -0.75697       -1.79135
H          2.30140       -0.46123       -2.18686
H          0.06853       -0.50112       -2.43545
H         -1.30397       -1.22467       -1.62514
H          0.20342       -2.11177       -1.73283
H         -5.35210       -1.17506        0.06992
H         -2.69264        1.00187       -1.43237
H         -4.12068       -2.17527        0.84215
H         -4.39857        1.14064       -0.99138
H         -4.30560       -2.19743       -0.91198
H         -3.85816       -0.10605       -2.10600
38
../min.omega.0.chi1.15.phi1.210.log	Energy: -505580.7461966
N          0.25201        0.86096       -0.06605
C          0.33424        3.30808       -0.49227
C         -0.44874        2.02647       -0.27475
C         -0.36666       -0.42535        0.32786
C          0.07651       -0.78826        1.74561
C         -1.88072       -0.54560        0.17081
C         -2.37676       -1.00649       -1.05458
C         -3.73423       -1.22471       -1.24287
C         -4.62871       -0.99956       -0.19795
C         -4.14862       -0.55558        1.02631
C         -2.78407       -0.33246        1.21140
C          1.69637        0.91675       -0.06467
O         -1.66973        2.09594       -0.26066
C          2.40827       -0.36822       -0.54387
C          4.34244       -1.83160       -0.43591
C          4.24267        0.13273        1.07222
N          3.59386       -0.68427        0.05950
O          1.95414       -1.01721       -1.47217
H          1.06389        3.48621        0.28963
H         -0.38644        4.11093       -0.49590
H          0.85250        3.30590       -1.44573
H          2.03928        1.66411       -0.76472
H          2.06413        1.20463        0.91135
H          0.04495       -1.15834       -0.34220
H         -1.69070       -1.18854       -1.86346
H         -4.09295       -1.57474       -2.19452
H         -5.68096       -1.17200       -0.33830
H         -4.82907       -0.37859        1.84037
H         -2.44358        0.02465        2.16497
H         -0.21354       -0.02834        2.46296
H          1.15297       -0.90734        1.81061
H         -0.36757       -1.73003        2.04579
H          5.23347       -1.51050       -0.96714
H          3.69224        0.14361        2.00609
H          3.71983       -2.39885       -1.10468
H          4.39578        1.15422        0.74238
H          4.64144       -2.45893        0.39625
H          5.21596       -0.29201        1.27063
38
../min.omega.0.chi1.15.phi1.240.log	Energy: -505584.6188989
N          0.26496        0.91416        0.19539
C          0.45581        3.06791       -1.04551
C         -0.37680        1.96308       -0.42178
C         -0.42273       -0.27040        0.75790
C         -0.27128       -0.27058        2.27947
C         -1.87326       -0.48377        0.33136
C         -2.10046       -1.09981       -0.90514
C         -3.38698       -1.40245       -1.32833
C         -4.47787       -1.10631       -0.51292
C         -4.26428       -0.50635        0.72030
C         -2.97091       -0.19803        1.14240
C          1.70835        0.86103        0.25128
O         -1.59373        2.08492       -0.43120
C          2.32747       -0.38092       -0.42829
C          4.22113       -1.89912       -0.62711
C          4.38142        0.01000        0.93529
N          3.60616       -0.70323       -0.06687
O          1.71160       -1.00218       -1.27912
H          1.05126        3.58657       -0.30137
H         -0.24152        3.76728       -1.47964
H          1.11715        2.70117       -1.82273
H          2.14353        1.71890       -0.23213
H          2.03205        0.90099        1.28323
H          0.11053       -1.12234        0.37242
H         -1.25931       -1.33434       -1.53392
H         -3.53914       -1.87229       -2.28388
H         -5.47619       -1.34341       -0.83530
H         -5.09846       -0.27254        1.35791
H         -2.83827        0.27896        2.09460
H         -0.70175        0.62086        2.72091
H          0.77129       -0.31299        2.57646
H         -0.76112       -1.13829        2.70627
H          5.13884       -1.64024       -1.14470
H          4.14329       -0.30954        1.94632
H          3.53814       -2.35580       -1.32132
H          4.24487        1.07990        0.86483
H          4.45707       -2.60567        0.16290
H          5.42926       -0.19133        0.75858
38
../min.omega.0.chi1.15.phi1.270.log	Energy: -505588.1822271
N          0.25534        1.04182        0.18513
C          0.74387        2.21038       -1.95514
C         -0.24003        1.67794       -0.92977
C         -0.55012        0.16010        1.06050
C         -0.67655        0.80766        2.43992
C         -1.89752       -0.29675        0.50613
C         -1.90193       -1.32550       -0.44346
C         -3.09382       -1.84133       -0.93248
C         -4.31233       -1.34510       -0.47243
C         -4.32053       -0.32995        0.47406
C         -3.12181        0.19112        0.96153
C          1.68128        0.89447        0.37036
O         -1.43501        1.88515       -1.08770
C          2.25930       -0.40701       -0.22934
C          4.11623       -1.97076       -0.39176
C          4.36999        0.03616        1.01935
N          3.56221       -0.70215        0.06203
O          1.57533       -1.10997       -0.95541
H          1.31180        3.04517       -1.55633
H          0.16102        2.56365       -2.79184
H          1.43401        1.44742       -2.29326
H          2.21199        1.73599       -0.04800
H          1.89082        0.91084        1.43153
H          0.03601       -0.74306        1.16890
H         -0.96442       -1.70979       -0.80299
H         -3.07393       -2.62914       -1.66455
H         -5.23765       -1.74562       -0.84682
H         -5.25398        0.06415        0.83503
H         -3.16118        0.98528        1.68167
H         -1.19593        1.75591        2.37665
H          0.29857        1.00013        2.87485
H         -1.21585        0.15878        3.12114
H          5.09141       -1.80387       -0.83518
H          4.23927       -0.33123        2.03437
H          3.45842       -2.40291       -1.12514
H          4.14846        1.09252        0.99959
H          4.22770       -2.66186        0.43929
H          5.41185       -0.08025        0.75112
38
../min.omega.0.chi1.30.phi1.120.log	Energy: -505585.6140341
N         -0.23442        0.44154       -0.33648
C         -0.23065        2.94795       -0.39007
C          0.37172        1.60370       -0.75481
C          0.54893       -0.80902       -0.21425
C          0.35612       -1.68872       -1.45000
C          2.02232       -0.60630        0.13149
C          2.34642       -0.28735        1.45560
C          3.66360       -0.14345        1.86807
C          4.69923       -0.33216        0.95456
C          4.39542       -0.65737       -0.36011
C          3.06906       -0.79211       -0.77078
C         -1.44561        0.48617        0.45115
O          1.38149        1.57800       -1.44440
C         -2.65004       -0.22100       -0.20977
C         -4.91763       -1.03147       -0.05440
C         -3.98629        0.20458        1.84977
N         -3.73683       -0.46474        0.58335
O         -2.62606       -0.54253       -1.38672
H         -1.23038        3.06728       -0.79312
H          0.41058        3.70090       -0.82133
H         -0.27236        3.09153        0.68460
H         -1.26701        0.04091        1.42309
H         -1.74891        1.50412        0.63480
H          0.11300       -1.32942        0.62964
H          1.55565       -0.15516        2.17584
H          3.88280        0.10219        2.89209
H          5.72322       -0.22855        1.26630
H          5.18540       -0.80048       -1.07561
H          2.86462       -1.01941       -1.79773
H          0.69709       -1.17318       -2.33867
H         -0.68817       -1.92053       -1.58896
H          0.91466       -2.61360       -1.34501
H         -5.46532       -1.61317        0.67696
H         -4.52829        1.13792        1.71226
H         -4.61673       -1.66858       -0.86790
H         -3.07228        0.41351        2.38212
H         -5.57157       -0.25473       -0.44253
H         -4.58634       -0.44371        2.47533
38
../min.omega.0.chi1.30.phi1.150.log	Energy: -505586.8571712
N          0.38091        0.59004       -0.11142
C          0.16260        2.95180       -0.91080
C         -0.22532        1.81809        0.02039
C         -0.33950       -0.64019        0.28862
C          0.10493       -1.06907        1.68743
C         -1.85823       -0.57671        0.14390
C         -2.40258       -0.80572       -1.12547
C         -3.77439       -0.81566       -1.33484
C         -4.64018       -0.60875       -0.26235
C         -4.11635       -0.38971        1.00416
C         -2.73633       -0.37046        1.20722
C          1.38158        0.39031       -1.13517
O         -1.04734        2.02524        0.90199
C          2.45592       -0.65720       -0.76626
C          4.46943       -1.28413        0.44405
C          3.51997        0.96413        0.80146
N          3.38211       -0.34824        0.19096
O          2.45283       -1.72559       -1.35592
H          1.17446        3.29598       -0.72236
H         -0.51802        3.76552       -0.71278
H          0.09122        2.66547       -1.95383
H          0.94994        0.01773       -2.05703
H          1.88109        1.32025       -1.35411
H         -0.00458       -1.39604       -0.40717
H         -1.74413       -0.99014       -1.95775
H         -4.16601       -0.99564       -2.32016
H         -5.70461       -0.62186       -0.41490
H         -4.77459       -0.22496        1.83841
H         -2.35871       -0.17304        2.19043
H         -0.12030       -0.29984        2.41523
H          1.17377       -1.24276        1.70496
H         -0.39182       -1.98705        1.98240
H          5.39943       -0.91974        0.01573
H          3.89328        0.83994        1.81005
H          4.22891       -2.23682        0.00576
H          2.56837        1.46380        0.86832
H          4.60505       -1.40094        1.51333
H          4.22279        1.59002        0.25602
38
../min.omega.0.chi1.30.phi1.180.log	Energy: -505584.3310684
N          0.40330        0.87154        0.02241
C         -0.19041        2.96260       -1.21829
C         -0.40999        1.97595       -0.08639
C         -0.19098       -0.37783        0.55005
C          0.14904       -0.52184        2.03388
C         -1.68035       -0.55958        0.26675
C         -2.04195       -1.05201       -0.99294
C         -3.36837       -1.29443       -1.32105
C         -4.36891       -1.06043       -0.37934
C         -4.02488       -0.58232        0.87743
C         -2.69119       -0.32995        1.19935
C          1.43707        0.73045       -0.97796
O         -1.28915        2.19412        0.73539
C          2.33459       -0.51775       -0.82291
C          4.20575       -1.64407        0.24495
C          3.59848        0.62749        0.99146
N          3.27102       -0.52902        0.17335
O          2.19036       -1.44372       -1.60454
H          0.78228        3.43853       -1.15803
H         -0.95518        3.71876       -1.13084
H         -0.26804        2.48137       -2.18651