38
../min.omega.0.chi1.240.phi1.270.log	Energy: -505596.0804083
N         -0.18325        1.15856        0.00360
C         -1.40036        2.85787       -1.33693
C         -0.39425        2.49208       -0.26137
C          0.78857        0.79099        1.05857
C          0.09821        0.19265        2.28474
C          1.91509       -0.05847        0.47474
C          2.75232        0.52361       -0.48457
C          3.79935       -0.18964       -1.05097
C          4.03494       -1.50894       -0.66812
C          3.21641       -2.09752        0.28582
C          2.16540       -1.37690        0.85339
C         -0.87749        0.10227       -0.69754
O          0.22464        3.37086        0.32221
C         -2.20303       -0.31838       -0.02405
C         -3.93143       -2.00570        0.27974
C         -2.04923       -2.48176       -1.25014
N         -2.72601       -1.52905       -0.38506
O         -2.76568        0.43612        0.75268
H         -1.05343        2.54038       -2.31533
H         -1.49504        3.93299       -1.33492
H         -2.36559        2.40782       -1.14402
H         -1.10061        0.39178       -1.71542
H         -0.20837       -0.74283       -0.76258
H          1.21965        1.72997        1.36001
H          2.58204        1.54481       -0.77718
H          4.43286        0.28084       -1.78168
H          4.84711       -2.06326       -1.10324
H          3.39191       -3.11272        0.59481
H          1.55496       -1.85352        1.59726
H         -0.38395       -0.75688        2.07944
H         -0.66187        0.87530        2.63860
H          0.82353        0.03396        3.07609
H         -4.66448       -2.30992       -0.45951
H         -1.32184       -3.08419       -0.71215
H         -4.33881       -1.21311        0.88237
H         -1.55361       -1.99165       -2.07562
H         -3.70636       -2.85836        0.91430
H         -2.79210       -3.14672       -1.66997
