
    -----------------------------------------------------------------------
          Psi4: An Open-Source Ab Initio Electronic Structure Package
                               Psi4 1.3.2 release

                         Git: Rev {HEAD} ecbda83 


    R. M. Parrish, L. A. Burns, D. G. A. Smith, A. C. Simmonett,
    A. E. DePrince III, E. G. Hohenstein, U. Bozkaya, A. Yu. Sokolov,
    R. Di Remigio, R. M. Richard, J. F. Gonthier, A. M. James,
    H. R. McAlexander, A. Kumar, M. Saitow, X. Wang, B. P. Pritchard,
    P. Verma, H. F. Schaefer III, K. Patkowski, R. A. King, E. F. Valeev,
    F. A. Evangelista, J. M. Turney, T. D. Crawford, and C. D. Sherrill,
    J. Chem. Theory Comput. 13(7) pp 3185--3197 (2017).
    (doi: 10.1021/acs.jctc.7b00174)


                         Additional Contributions by
    P. Kraus, H. Kruse, M. H. Lechner, M. C. Schieber, R. A. Shaw,
    A. Alenaizan, R. Galvelis, Z. L. Glick, S. Lehtola, and J. P. Misiewicz

    -----------------------------------------------------------------------


    Psi4 started on: Friday, 18 September 2020 08:51PM

    Process ID: 8853
    Host:       chem-mcdaniel-u01
    PSIDATADIR: /home/jstoppelman3/anaconda3/envs/test_forcebalance/share/psi4
    Memory:     500.0 MiB
    Threads:    8
    
  ==> Input File <==

--------------------------------------------------------------------------
memory 4 gb

molecule dimer {
   C  24.081  20.550   2.967  
   C  25.023  21.562   2.352  
   O  24.861  21.548   0.942  
   H  25.478  22.205   0.581  
   H  24.180  20.535   4.056  
   H  23.042  20.785   2.711  
   H  24.284  19.546   2.580  
   H  26.062  21.311   2.589  
   H  24.803  22.567   2.723  

units angstrom
symmetry c1
}

set globals{
basis       aug-cc-pVTZ
print       1
}

gradient('pbe')

molecule dimer {
 0 1
   C  19.898  23.202  17.886  
   C  19.314  24.409  18.589  
   O  19.298  25.506  17.688  
   H  18.920  26.260  18.169  
   H  19.925  22.336  18.554  
   H  19.307  22.947  17.001  
   H  20.915  23.412  17.540  
   H  19.920  24.676  19.459  
   H  18.289  24.205  18.914  

units angstrom
symmetry c1
}

set globals{
basis       aug-cc-pVTZ
print       1
}

gradient('pbe')

--------------------------------------------------------------------------

  Memory set to   3.725 GiB by Python driver.
gradient() will perform analytic gradient computation.

*** tstart() called on chem-mcdaniel-u01
*** at Fri Sep 18 20:51:07 2020

   => Loading Basis Set <=

    Name: AUG-CC-PVTZ
    Role: ORBITAL
    Keyword: BASIS
    atoms 1-2 entry C          line   235 file /home/jstoppelman3/anaconda3/envs/test_forcebalance/share/psi4/basis/aug-cc-pvtz.gbs 
    atoms 3   entry O          line   327 file /home/jstoppelman3/anaconda3/envs/test_forcebalance/share/psi4/basis/aug-cc-pvtz.gbs 
    atoms 4-9 entry H          line    36 file /home/jstoppelman3/anaconda3/envs/test_forcebalance/share/psi4/basis/aug-cc-pvtz.gbs 


         ---------------------------------------------------------
                                   SCF
               by Justin Turney, Rob Parrish, Andy Simmonett
                          and Daniel G. A. Smith
                              RKS Reference
                        8 Threads,   3814 MiB Core
         ---------------------------------------------------------

  ==> Geometry <==

    Molecular point group: c1
    Full point group: C1

    Geometry (in Angstrom), charge = 0, multiplicity = 1:

       Center              X                  Y                   Z               Mass       
    ------------   -----------------  -----------------  -----------------  -----------------
         C           -0.590100967826    -0.690338639889     0.919853051332    12.000000000000
         C            0.351899032174     0.321661360111     0.304853051332    12.000000000000
         O            0.189899032174     0.307661360111    -1.105146948668    15.994914619570
         H            0.806899032174     0.964661360111    -1.466146948668     1.007825032230
         H           -0.491100967826    -0.705338639889     2.008853051332     1.007825032230
         H           -1.629100967826    -0.455338639889     0.663853051332     1.007825032230
         H           -0.387100967826    -1.694338639889     0.532853051332     1.007825032230
         H            1.390899032174     0.070661360111     0.541853051332     1.007825032230
         H            0.131899032174     1.326661360111     0.675853051332     1.007825032230

  Running in c1 symmetry.

  Rotational constants: A =      1.19694  B =      0.31028  C =      0.27150 [cm^-1]
  Rotational constants: A =  35883.23443  B =   9301.87483  C =   8139.41506 [MHz]
  Nuclear repulsion =   81.826923748086344

  Charge       = 0
  Multiplicity = 1
  Electrons    = 26
  Nalpha       = 13
  Nbeta        = 13

  ==> Algorithm <==

  SCF Algorithm Type is DF.
  DIIS enabled.
  MOM disabled.
  Fractional occupation disabled.
  Guess Type is SAD.
  Energy threshold   = 1.00e-08
  Density threshold  = 1.00e-08
  Integral threshold = 0.00e+00

  ==> Primary Basis <==

  Basis Set: AUG-CC-PVTZ
    Blend: AUG-CC-PVTZ
    Number of shells: 96
    Number of basis function: 276
    Number of Cartesian functions: 315
    Spherical Harmonics?: true
    Max angular momentum: 3

  ==> DFT Potential <==

   => Composite Functional: PBE <= 

    PBE GGA Exchange-Correlation Functional

    J.P. Perdew et. al., Phys. Rev. Lett., 77(18), 3865-3868, 1996


    Deriv               =              1
    GGA                 =           TRUE
    Meta                =          FALSE

    Exchange Hybrid     =          FALSE
    MP2 Hybrid          =          FALSE

   => Exchange Functionals <=

    1.0000     XC_GGA_X_PBE

   => Correlation Functionals <=

    1.0000     XC_GGA_C_PBE

   => Molecular Quadrature <=

    Radial Scheme          =       TREUTLER
    Pruning Scheme         =           FLAT
    Nuclear Scheme         =       TREUTLER

    BS radius alpha        =              1
    Pruning alpha          =              1
    Radial Points          =             75
    Spherical Points       =            302
    Total Points           =         203850
    Total Blocks           =           1594
    Max Points             =            256
    Max Functions          =            276

   => Loading Basis Set <=

    Name: (AUG-CC-PVTZ AUX)
    Role: JKFIT
    Keyword: DF_BASIS_SCF
    atoms 1-2 entry C          line   162 file /home/jstoppelman3/anaconda3/envs/test_forcebalance/share/psi4/basis/aug-cc-pvtz-jkfit.gbs 
    atoms 3   entry O          line   286 file /home/jstoppelman3/anaconda3/envs/test_forcebalance/share/psi4/basis/aug-cc-pvtz-jkfit.gbs 
    atoms 4-9 entry H          line    70 file /home/jstoppelman3/anaconda3/envs/test_forcebalance/share/psi4/basis/aug-cc-pvtz-jkfit.gbs 

  ==> Pre-Iterations <==

   -------------------------------------------------------
    Irrep   Nso     Nmo     Nalpha   Nbeta   Ndocc  Nsocc
   -------------------------------------------------------
     A        276     276       0       0       0       0
   -------------------------------------------------------
    Total     276     276      13      13      13       0
   -------------------------------------------------------

  ==> Integral Setup <==

  DFHelper Memory: AOs need 0.355 GiB; user supplied 1.367 GiB. Using in-core AOs.

  ==> MemDFJK: Density-Fitted J/K Matrices <==

    J tasked:                   Yes
    K tasked:                    No
    wK tasked:                   No
    OpenMP threads:               8
    Memory [MiB]:              1399
    Algorithm:                 Core
    Schwarz Cutoff:           1E-12
    Mask sparsity (%):       0.2573
    Fitting Condition:        1E-10

   => Auxiliary Basis Set <=

  Basis Set: (AUG-CC-PVTZ AUX)
    Blend: AUG-CC-PVTZ-JKFIT
    Number of shells: 174
    Number of basis function: 588
    Number of Cartesian functions: 723
    Spherical Harmonics?: true
    Max angular momentum: 4

  Cached 100.0% of DFT collocation blocks in 1.427 [GiB].

  Minimum eigenvalue in the overlap matrix is 1.9462913503E-05.
  Using Symmetric Orthogonalization.

  SCF Guess: Superposition of Atomic Densities via on-the-fly atomic UHF.

  ==> Iterations <==

                           Total Energy        Delta E     RMS |[F,P]|

   @DF-RKS iter SAD:  -154.30049734175105   -1.54300e+02   0.00000e+00 
   @DF-RKS iter   1:  -154.35102574778924   -5.05284e-02   3.93342e-03 DIIS
   @DF-RKS iter   2:  -152.75109916476237    1.59993e+00   7.43891e-03 DIIS
   @DF-RKS iter   3:  -154.86442043175956   -2.11332e+00   1.16050e-03 DIIS
   @DF-RKS iter   4:  -154.88369507951262   -1.92746e-02   8.53896e-04 DIIS
   @DF-RKS iter   5:  -154.90446565814233   -2.07706e-02   1.31272e-04 DIIS
   @DF-RKS iter   6:  -154.90496650418373   -5.00846e-04   5.04366e-05 DIIS
   @DF-RKS iter   7:  -154.90504321183113   -7.67076e-05   1.20744e-05 DIIS
   @DF-RKS iter   8:  -154.90504846118003   -5.24935e-06   1.35676e-06 DIIS
   @DF-RKS iter   9:  -154.90504852849648   -6.73164e-08   3.01878e-07 DIIS
   @DF-RKS iter  10:  -154.90504853233395   -3.83747e-09   4.31563e-08 DIIS
   @DF-RKS iter  11:  -154.90504853240770   -7.37543e-11   8.61706e-09 DIIS
  Energy and wave function converged.


  ==> Post-Iterations <==

    Orbital Energies [Eh]
    ---------------------

    Doubly Occupied:                                                      

       1A    -18.753949     2A     -9.928153     3A     -9.874474  
       4A     -0.935900     5A     -0.680134     6A     -0.550281  
       7A     -0.467068     8A     -0.417949     9A     -0.361327  
      10A     -0.341564    11A     -0.320753    12A     -0.290373  
      13A     -0.226556  

    Virtual:                                                              

      14A     -0.024304    15A     -0.003361    16A      0.010389  
      17A      0.010682    18A      0.031968    19A      0.043156  
      20A      0.052861    21A      0.057690    22A      0.069538  
      23A      0.073338    24A      0.080741    25A      0.087580  
      26A      0.091081    27A      0.107230    28A      0.113359  
      29A      0.118001    30A      0.126966    31A      0.138459  
      32A      0.149423    33A      0.152191    34A      0.159411  
      35A      0.179158    36A      0.198806    37A      0.205060  
      38A      0.216715    39A      0.227053    40A      0.244009  
      41A      0.245857    42A      0.266070    43A      0.268811  
      44A      0.272853    45A      0.284311    46A      0.284613  
      47A      0.296468    48A      0.299992    49A      0.307449  
      50A      0.310912    51A      0.320151    52A      0.324000  
      53A      0.333240    54A      0.336583    55A      0.343360  
      56A      0.363469    57A      0.380475    58A      0.387049  
      59A      0.394011    60A      0.414552    61A      0.431985  
      62A      0.432508    63A      0.438454    64A      0.441896  
      65A      0.446624    66A      0.454145    67A      0.483518  
      68A      0.548805    69A      0.559129    70A      0.580589  
      71A      0.590112    72A      0.603582    73A      0.622416  
      74A      0.644194    75A      0.649145    76A      0.656483  
      77A      0.673896    78A      0.688657    79A      0.689163  
      80A      0.706589    81A      0.718409    82A      0.734774  
      83A      0.745074    84A      0.754152    85A      0.780426  
      86A      0.784643    87A      0.798727    88A      0.808311  
      89A      0.811137    90A      0.814094    91A      0.843087  
      92A      0.848540    93A      0.873646    94A      0.887195  
      95A      0.902974    96A      0.915458    97A      0.917886  
      98A      0.928148    99A      0.937280   100A      0.952695  
     101A      0.965759   102A      0.984050   103A      0.985125  
     104A      0.989810   105A      1.019880   106A      1.042988  
     107A      1.046408   108A      1.074445   109A      1.091156  
     110A      1.092517   111A      1.109327   112A      1.126613  
     113A      1.176615   114A      1.184192   115A      1.197998  
     116A      1.209590   117A      1.236099   118A      1.241762  
     119A      1.261436   120A      1.282226   121A      1.297146  
     122A      1.344406   123A      1.362351   124A      1.370502  
     125A      1.383286   126A      1.391332   127A      1.408869  
     128A      1.423473   129A      1.431791   130A      1.449837  
     131A      1.453113   132A      1.471442   133A      1.483880  
     134A      1.490757   135A      1.501344   136A      1.539115  
     137A      1.550283   138A      1.555353   139A      1.590330  
     140A      1.626632   141A      1.645576   142A      1.650095  
     143A      1.691138   144A      1.696071   145A      1.741711  
     146A      1.767048   147A      1.771668   148A      1.815469  
     149A      1.828134   150A      1.838320   151A      1.901718  
     152A      1.940663   153A      1.959292   154A      1.978787  
     155A      1.992129   156A      2.018379   157A      2.086203  
     158A      2.093526   159A      2.145883   160A      2.151763  
     161A      2.182441   162A      2.216382   163A      2.238199  
     164A      2.311852   165A      2.382632   166A      2.451220  
     167A      2.505174   168A      2.546684   169A      2.566433  
     170A      2.596516   171A      2.611309   172A      2.672134  
     173A      2.682561   174A      2.774543   175A      2.842992  
     176A      2.894477   177A      2.991207   178A      3.000683  
     179A      3.042336   180A      3.060887   181A      3.131489  
     182A      3.178460   183A      3.201601   184A      3.203841  
     185A      3.254633   186A      3.255650   187A      3.292968  
     188A      3.311136   189A      3.348859   190A      3.378467  
     191A      3.405630   192A      3.421349   193A      3.496669  
     194A      3.499475   195A      3.529857   196A      3.533964  
     197A      3.557482   198A      3.585267   199A      3.611905  
     200A      3.629625   201A      3.656212   202A      3.726399  
     203A      3.733508   204A      3.751892   205A      3.800199  
     206A      3.811463   207A      3.831953   208A      3.872782  
     209A      3.919003   210A      3.935760   211A      4.018730  
     212A      4.039665   213A      4.040970   214A      4.088647  
     215A      4.131975   216A      4.135820   217A      4.189306  
     218A      4.224926   219A      4.269555   220A      4.283137  
     221A      4.329452   222A      4.385503   223A      4.394693  
     224A      4.407263   225A      4.462789   226A      4.504494  
     227A      4.527970   228A      4.568670   229A      4.599920  
     230A      4.633320   231A      4.664195   232A      4.701838  
     233A      4.715034   234A      4.746585   235A      4.765958  
     236A      4.841141   237A      4.861590   238A      4.890109  
     239A      4.941629   240A      4.985728   241A      4.987440  
     242A      5.030331   243A      5.104237   244A      5.123347  
     245A      5.141467   246A      5.263277   247A      5.287840  
     248A      5.341715   249A      5.367033   250A      5.454801  
     251A      5.526227   252A      5.564975   253A      5.593536  
     254A      5.688370   255A      5.749042   256A      5.765637  
     257A      5.844773   258A      6.092339   259A      6.203378  
     260A      6.277672   261A      6.319825   262A      6.355523  
     263A      6.358439   264A      6.506094   265A      6.686657  
     266A      6.741849   267A      6.837626   268A      6.906560  
     269A      6.959733   270A      7.162381   271A      7.266600  
     272A      7.549037   273A      7.876371   274A     14.615664  
     275A     16.597208   276A     17.107943  

    Final Occupation by Irrep:
              A 
    DOCC [    13 ]

  @DF-RKS Final Energy:  -154.90504853240770

   => Energetics <=

    Nuclear Repulsion Energy =             81.8269237480863438
    One-Electron Energy =                -371.8228764325077123
    Two-Electron Energy =                 156.5686061708935028
    DFT Exchange-Correlation Energy =     -21.4777020188798637
    Empirical Dispersion Energy =           0.0000000000000000
    VV10 Nonlocal Energy =                  0.0000000000000000
    Total Energy =                       -154.9050485324077044

Computation Completed


Properties will be evaluated at   0.000000,   0.000000,   0.000000 [a0]

Properties computed using the SCF density matrix

  Nuclear Dipole Moment: [e a0]
     X:    -0.1656      Y:    -0.4607      Z:     2.7669

  Electronic Dipole Moment: [e a0]
     X:     0.5375      Y:     0.8004      Z:    -2.4471

  Dipole Moment: [e a0]
     X:     0.3719      Y:     0.3397      Z:     0.3198     Total:     0.5966

  Dipole Moment: [D]
     X:     0.9453      Y:     0.8634      Z:     0.8128     Total:     1.5165


*** tstop() called on chem-mcdaniel-u01 at Fri Sep 18 20:51:59 2020
Module time:
	user time   =      59.20 seconds =       0.99 minutes
	system time =       1.23 seconds =       0.02 minutes
	total time  =         52 seconds =       0.87 minutes
Total time:
	user time   =      59.20 seconds =       0.99 minutes
	system time =       1.23 seconds =       0.02 minutes
	total time  =         52 seconds =       0.87 minutes

*** tstart() called on chem-mcdaniel-u01
*** at Fri Sep 18 20:51:59 2020


         ------------------------------------------------------------
                                   SCF GRAD                          
                          Rob Parrish, Justin Turney,                
                       Andy Simmonett, and Alex Sokolov              
         ------------------------------------------------------------

  ==> Geometry <==

    Molecular point group: c1
    Full point group: C1

    Geometry (in Angstrom), charge = 0, multiplicity = 1:

       Center              X                  Y                   Z               Mass       
    ------------   -----------------  -----------------  -----------------  -----------------
         C           -0.590100967826    -0.690338639889     0.919853051332    12.000000000000
         C            0.351899032174     0.321661360111     0.304853051332    12.000000000000
         O            0.189899032174     0.307661360111    -1.105146948668    15.994914619570
         H            0.806899032174     0.964661360111    -1.466146948668     1.007825032230
         H           -0.491100967826    -0.705338639889     2.008853051332     1.007825032230
         H           -1.629100967826    -0.455338639889     0.663853051332     1.007825032230
         H           -0.387100967826    -1.694338639889     0.532853051332     1.007825032230
         H            1.390899032174     0.070661360111     0.541853051332     1.007825032230
         H            0.131899032174     1.326661360111     0.675853051332     1.007825032230

  Nuclear repulsion =   81.826923748086344

  ==> Basis Set <==

  Basis Set: AUG-CC-PVTZ
    Blend: AUG-CC-PVTZ
    Number of shells: 96
    Number of basis function: 276
    Number of Cartesian functions: 315
    Spherical Harmonics?: true
    Max angular momentum: 3

  ==> DFJKGrad: Density-Fitted SCF Gradients <==

    Gradient:                    1
    J tasked:                  Yes
    K tasked:                   No
    wK tasked:                  No
    OpenMP threads:              8
    Integrals threads:           8
    Memory [MiB]:             2861
    Schwarz Cutoff:          0E+00
    Fitting Condition:       1E-10

   => Auxiliary Basis Set <=

  Basis Set: (AUG-CC-PVTZ AUX)
    Blend: AUG-CC-PVTZ-JKFIT
    Number of shells: 174
    Number of basis function: 588
    Number of Cartesian functions: 723
    Spherical Harmonics?: true
    Max angular momentum: 4

  ==> DFT Potential <==

   => Composite Functional: PBE <= 

    PBE GGA Exchange-Correlation Functional

    J.P. Perdew et. al., Phys. Rev. Lett., 77(18), 3865-3868, 1996


    Deriv               =              1
    GGA                 =           TRUE
    Meta                =          FALSE

    Exchange Hybrid     =          FALSE
    MP2 Hybrid          =          FALSE

   => Exchange Functionals <=

    1.0000     XC_GGA_X_PBE

   => Correlation Functionals <=

    1.0000     XC_GGA_C_PBE

   => Molecular Quadrature <=

    Radial Scheme          =       TREUTLER
    Pruning Scheme         =           FLAT
    Nuclear Scheme         =       TREUTLER

    BS radius alpha        =              1
    Pruning alpha          =              1
    Radial Points          =             75
    Spherical Points       =            302
    Total Points           =         203850
    Total Blocks           =           1594
    Max Points             =            256
    Max Functions          =            276


  -Total Gradient:
     Atom            X                  Y                   Z
    ------   -----------------  -----------------  -----------------
       1        0.001596063820     0.000419285432     0.003374658338
       2        0.001257621195     0.002992501712    -0.002702206945
       3        0.001657252720     0.000128979378     0.012570635515
       4        0.001430111714     0.001214165650     0.002057268352
       5       -0.000446334898    -0.000093194277    -0.002780343569
       6        0.002084480555    -0.001811223054    -0.000441782763
       7       -0.002041768925     0.002315011202     0.000121588209
       8       -0.005717213403     0.000494976548    -0.005723156791
       9        0.000178443256    -0.005664205201    -0.006451700296


*** tstop() called on chem-mcdaniel-u01 at Fri Sep 18 20:52:02 2020
Module time:
	user time   =      24.65 seconds =       0.41 minutes
	system time =       0.35 seconds =       0.01 minutes
	total time  =          3 seconds =       0.05 minutes
Total time:
	user time   =      83.86 seconds =       1.40 minutes
	system time =       1.58 seconds =       0.03 minutes
	total time  =         55 seconds =       0.92 minutes
gradient() will perform analytic gradient computation.

*** tstart() called on chem-mcdaniel-u01
*** at Fri Sep 18 20:52:02 2020

   => Loading Basis Set <=

    Name: AUG-CC-PVTZ
    Role: ORBITAL
    Keyword: BASIS
    atoms 1-2 entry C          line   235 file /home/jstoppelman3/anaconda3/envs/test_forcebalance/share/psi4/basis/aug-cc-pvtz.gbs 
    atoms 3   entry O          line   327 file /home/jstoppelman3/anaconda3/envs/test_forcebalance/share/psi4/basis/aug-cc-pvtz.gbs 
    atoms 4-9 entry H          line    36 file /home/jstoppelman3/anaconda3/envs/test_forcebalance/share/psi4/basis/aug-cc-pvtz.gbs 


         ---------------------------------------------------------
                                   SCF
               by Justin Turney, Rob Parrish, Andy Simmonett
                          and Daniel G. A. Smith
                              RKS Reference
                        8 Threads,   3814 MiB Core
         ---------------------------------------------------------

  ==> Geometry <==

    Molecular point group: c1
    Full point group: C1

    Geometry (in Angstrom), charge = 0, multiplicity = 1:

       Center              X                  Y                   Z               Mass       
    ------------   -----------------  -----------------  -----------------  -----------------
         C            0.406879159129    -1.216207607142    -0.165244584164    12.000000000000
         C           -0.177120840871    -0.009207607142     0.537755415836    12.000000000000
         O           -0.193120840871     1.087792392858    -0.363244584164    15.994914619570
         H           -0.571120840871     1.841792392858     0.117755415836     1.007825032230
         H            0.433879159129    -2.082207607142     0.502755415836     1.007825032230
         H           -0.184120840871    -1.471207607142    -1.050244584164     1.007825032230
         H            1.423879159129    -1.006207607142    -0.511244584164     1.007825032230
         H            0.428879159129     0.257792392858     1.407755415836     1.007825032230
         H           -1.202120840871    -0.213207607142     0.862755415836     1.007825032230

  Running in c1 symmetry.

  Rotational constants: A =      1.19657  B =      0.31017  C =      0.27139 [cm^-1]
  Rotational constants: A =  35872.36178  B =   9298.72594  C =   8135.91875 [MHz]
  Nuclear repulsion =   81.817557262605646

  Charge       = 0
  Multiplicity = 1
  Electrons    = 26
  Nalpha       = 13
  Nbeta        = 13

  ==> Algorithm <==

  SCF Algorithm Type is DF.
  DIIS enabled.
  MOM disabled.
  Fractional occupation disabled.
  Guess Type is SAD.
  Energy threshold   = 1.00e-08
  Density threshold  = 1.00e-08
  Integral threshold = 0.00e+00

  ==> Primary Basis <==

  Basis Set: AUG-CC-PVTZ
    Blend: AUG-CC-PVTZ
    Number of shells: 96
    Number of basis function: 276
    Number of Cartesian functions: 315
    Spherical Harmonics?: true
    Max angular momentum: 3

  ==> DFT Potential <==

   => Composite Functional: PBE <= 

    PBE GGA Exchange-Correlation Functional

    J.P. Perdew et. al., Phys. Rev. Lett., 77(18), 3865-3868, 1996


    Deriv               =              1
    GGA                 =           TRUE
    Meta                =          FALSE

    Exchange Hybrid     =          FALSE
    MP2 Hybrid          =          FALSE

   => Exchange Functionals <=

    1.0000     XC_GGA_X_PBE

   => Correlation Functionals <=

    1.0000     XC_GGA_C_PBE

   => Molecular Quadrature <=

    Radial Scheme          =       TREUTLER
    Pruning Scheme         =           FLAT
    Nuclear Scheme         =       TREUTLER

    BS radius alpha        =              1
    Pruning alpha          =              1
    Radial Points          =             75
    Spherical Points       =            302
    Total Points           =         203850
    Total Blocks           =           1578
    Max Points             =            256
    Max Functions          =            276

   => Loading Basis Set <=

    Name: (AUG-CC-PVTZ AUX)
    Role: JKFIT
    Keyword: DF_BASIS_SCF
    atoms 1-2 entry C          line   162 file /home/jstoppelman3/anaconda3/envs/test_forcebalance/share/psi4/basis/aug-cc-pvtz-jkfit.gbs 
    atoms 3   entry O          line   286 file /home/jstoppelman3/anaconda3/envs/test_forcebalance/share/psi4/basis/aug-cc-pvtz-jkfit.gbs 
    atoms 4-9 entry H          line    70 file /home/jstoppelman3/anaconda3/envs/test_forcebalance/share/psi4/basis/aug-cc-pvtz-jkfit.gbs 

  ==> Pre-Iterations <==

   -------------------------------------------------------
    Irrep   Nso     Nmo     Nalpha   Nbeta   Ndocc  Nsocc
   -------------------------------------------------------
     A        276     276       0       0       0       0
   -------------------------------------------------------
    Total     276     276      13      13      13       0
   -------------------------------------------------------

  ==> Integral Setup <==

  DFHelper Memory: AOs need 0.355 GiB; user supplied 1.365 GiB. Using in-core AOs.

  ==> MemDFJK: Density-Fitted J/K Matrices <==

    J tasked:                   Yes
    K tasked:                    No
    wK tasked:                   No
    OpenMP threads:               8
    Memory [MiB]:              1397
    Algorithm:                 Core
    Schwarz Cutoff:           1E-12
    Mask sparsity (%):       0.2783
    Fitting Condition:        1E-10

   => Auxiliary Basis Set <=

  Basis Set: (AUG-CC-PVTZ AUX)
    Blend: AUG-CC-PVTZ-JKFIT
    Number of shells: 174
    Number of basis function: 588
    Number of Cartesian functions: 723
    Spherical Harmonics?: true
    Max angular momentum: 4

  Cached 100.0% of DFT collocation blocks in 1.429 [GiB].

  Minimum eigenvalue in the overlap matrix is 1.9485613274E-05.
  Using Symmetric Orthogonalization.

  SCF Guess: Superposition of Atomic Densities via on-the-fly atomic UHF.

  ==> Iterations <==

                           Total Energy        Delta E     RMS |[F,P]|

   @DF-RKS iter SAD:  -154.29974490012984   -1.54300e+02   0.00000e+00 
   @DF-RKS iter   1:  -154.35136495900679   -5.16201e-02   3.93227e-03 DIIS
   @DF-RKS iter   2:  -152.75456518289639    1.59680e+00   7.43357e-03 DIIS
   @DF-RKS iter   3:  -154.86439113856940   -2.10983e+00   1.16102e-03 DIIS
   @DF-RKS iter   4:  -154.88374944845734   -1.93583e-02   8.52832e-04 DIIS
   @DF-RKS iter   5:  -154.90446733098565   -2.07179e-02   1.31252e-04 DIIS
   @DF-RKS iter   6:  -154.90496799098906   -5.00660e-04   5.04319e-05 DIIS
   @DF-RKS iter   7:  -154.90504469351447   -7.67025e-05   1.20829e-05 DIIS
   @DF-RKS iter   8:  -154.90504995152722   -5.25801e-06   1.35694e-06 DIIS
   @DF-RKS iter   9:  -154.90505001885086   -6.73236e-08   3.01334e-07 DIIS
   @DF-RKS iter  10:  -154.90505002267213   -3.82127e-09   4.32238e-08 DIIS
   @DF-RKS iter  11:  -154.90505002274551   -7.33849e-11   8.60102e-09 DIIS
  Energy and wave function converged.


  ==> Post-Iterations <==

    Orbital Energies [Eh]
    ---------------------

    Doubly Occupied:                                                      

       1A    -18.753946     2A     -9.928136     3A     -9.874399  
       4A     -0.935782     5A     -0.680059     6A     -0.550372  
       7A     -0.466985     8A     -0.417968     9A     -0.361219  
      10A     -0.341514    11A     -0.320946    12A     -0.290354  
      13A     -0.226581  

    Virtual:                                                              

      14A     -0.024299    15A     -0.003349    16A      0.010394  
      17A      0.010708    18A      0.031967    19A      0.043169  
      20A      0.052873    21A      0.057690    22A      0.069532  
      23A      0.073351    24A      0.080751    25A      0.087623  
      26A      0.091094    27A      0.107252    28A      0.113362  
      29A      0.117957    30A      0.127096    31A      0.138492  
      32A      0.149425    33A      0.152113    34A      0.159418  
      35A      0.179041    36A      0.198824    37A      0.205073  
      38A      0.216702    39A      0.227007    40A      0.244037  
      41A      0.245839    42A      0.266038    43A      0.268859  
      44A      0.272949    45A      0.284289    46A      0.284634  
      47A      0.296480    48A      0.300015    49A      0.307544  
      50A      0.310849    51A      0.320209    52A      0.323989  
      53A      0.333230    54A      0.336649    55A      0.343336  
      56A      0.363328    57A      0.380479    58A      0.387029  
      59A      0.394024    60A      0.414544    61A      0.431989  
      62A      0.432462    63A      0.438425    64A      0.441864  
      65A      0.446599    66A      0.454124    67A      0.483527  
      68A      0.548852    69A      0.559239    70A      0.580596  
      71A      0.590118    72A      0.603638    73A      0.622413  
      74A      0.644228    75A      0.649159    76A      0.656535  
      77A      0.673969    78A      0.688729    79A      0.689077  
      80A      0.706581    81A      0.718432    82A      0.734822  
      83A      0.745054    84A      0.754096    85A      0.780517  
      86A      0.784694    87A      0.798731    88A      0.808427  
      89A      0.811078    90A      0.814059    91A      0.843082  
      92A      0.848489    93A      0.873592    94A      0.887112  
      95A      0.902973    96A      0.915473    97A      0.917844  
      98A      0.928210    99A      0.937315   100A      0.952693  
     101A      0.965714   102A      0.984130   103A      0.985125  
     104A      0.989779   105A      1.019952   106A      1.043030  
     107A      1.046439   108A      1.074504   109A      1.091207  
     110A      1.092619   111A      1.109368   112A      1.126731  
     113A      1.176674   114A      1.184124   115A      1.198041  
     116A      1.209536   117A      1.236093   118A      1.241769  
     119A      1.261402   120A      1.282212   121A      1.297129  
     122A      1.344374   123A      1.362386   124A      1.370548  
     125A      1.383338   126A      1.391422   127A      1.408912  
     128A      1.423536   129A      1.431794   130A      1.449708  
     131A      1.453045   132A      1.471486   133A      1.483875  
     134A      1.490649   135A      1.501346   136A      1.539006  
     137A      1.550253   138A      1.555636   139A      1.590235  
     140A      1.626767   141A      1.645745   142A      1.649872  
     143A      1.691476   144A      1.695962   145A      1.741778  
     146A      1.766970   147A      1.771773   148A      1.815527  
     149A      1.828046   150A      1.838212   151A      1.901525  
     152A      1.940861   153A      1.959642   154A      1.978917  
     155A      1.992423   156A      2.018995   157A      2.085971  
     158A      2.093585   159A      2.145787   160A      2.151787  
     161A      2.182238   162A      2.216316   163A      2.237970  
     164A      2.311537   165A      2.382243   166A      2.450494  
     167A      2.505050   168A      2.546682   169A      2.566337  
     170A      2.596323   171A      2.611110   172A      2.672008  
     173A      2.682092   174A      2.774309   175A      2.842671  
     176A      2.894442   177A      2.990501   178A      3.000627  
     179A      3.042798   180A      3.061282   181A      3.131123  
     182A      3.178355   183A      3.201439   184A      3.203690  
     185A      3.254726   186A      3.255514   187A      3.292752  
     188A      3.311139   189A      3.348982   190A      3.378207  
     191A      3.405351   192A      3.421423   193A      3.497246  
     194A      3.499216   195A      3.529799   196A      3.534679  
     197A      3.557396   198A      3.584837   199A      3.611671  
     200A      3.629551   201A      3.656129   202A      3.726552  
     203A      3.733331   204A      3.752417   205A      3.800339  
     206A      3.811584   207A      3.832189   208A      3.872636  
     209A      3.918818   210A      3.935665   211A      4.018907  
     212A      4.039918   213A      4.041025   214A      4.089065  
     215A      4.132258   216A      4.135756   217A      4.189383  
     218A      4.224940   219A      4.269853   220A      4.283480  
     221A      4.329220   222A      4.386042   223A      4.394877  
     224A      4.407335   225A      4.463660   226A      4.504353  
     227A      4.528087   228A      4.568529   229A      4.600369  
     230A      4.633469   231A      4.664554   232A      4.702426  
     233A      4.714900   234A      4.747258   235A      4.765860  
     236A      4.841689   237A      4.861576   238A      4.890314  
     239A      4.942328   240A      4.985885   241A      4.987775  
     242A      5.030728   243A      5.104374   244A      5.123116  
     245A      5.141930   246A      5.263131   247A      5.289206  
     248A      5.341369   249A      5.368028   250A      5.455064  
     251A      5.527876   252A      5.565894   253A      5.593712  
     254A      5.689834   255A      5.750083   256A      5.765421  
     257A      5.844025   258A      6.092109   259A      6.203523  
     260A      6.277655   261A      6.319632   262A      6.355435  
     263A      6.358281   264A      6.505844   265A      6.686216  
     266A      6.741704   267A      6.837426   268A      6.906358  
     269A      6.959408   270A      7.162126   271A      7.266531  
     272A      7.548549   273A      7.876087   274A     14.613379  
     275A     16.598115   276A     17.107256  

    Final Occupation by Irrep:
              A 
    DOCC [    13 ]

  @DF-RKS Final Energy:  -154.90505002274551

   => Energetics <=

    Nuclear Repulsion Energy =             81.8175572626056464
    One-Electron Energy =                -371.8044468722746387
    Two-Electron Energy =                 156.5597212443235264
    DFT Exchange-Correlation Energy =     -21.4778816574000366
    Empirical Dispersion Energy =           0.0000000000000000
    VV10 Nonlocal Energy =                  0.0000000000000000
    Total Energy =                       -154.9050500227455132

Computation Completed


Properties will be evaluated at   0.000000,   0.000000,   0.000000 [a0]

Properties computed using the SCF density matrix

  Nuclear Dipole Moment: [e a0]
     X:     0.3078      Y:    -2.5009      Z:     1.2447

  Electronic Dipole Moment: [e a0]
     X:    -0.4941      Y:     2.4930      Z:    -0.6777

  Dipole Moment: [e a0]
     X:    -0.1864      Y:    -0.0079      Z:     0.5669     Total:     0.5968

  Dipole Moment: [D]
     X:    -0.4737      Y:    -0.0200      Z:     1.4410     Total:     1.5170


*** tstop() called on chem-mcdaniel-u01 at Fri Sep 18 20:52:13 2020
Module time:
	user time   =      60.87 seconds =       1.01 minutes
	system time =       0.58 seconds =       0.01 minutes
	total time  =         11 seconds =       0.18 minutes
Total time:
	user time   =     144.80 seconds =       2.41 minutes
	system time =       2.16 seconds =       0.04 minutes
	total time  =         66 seconds =       1.10 minutes

*** tstart() called on chem-mcdaniel-u01
*** at Fri Sep 18 20:52:13 2020


         ------------------------------------------------------------
                                   SCF GRAD                          
                          Rob Parrish, Justin Turney,                
                       Andy Simmonett, and Alex Sokolov              
         ------------------------------------------------------------

  ==> Geometry <==

    Molecular point group: c1
    Full point group: C1

    Geometry (in Angstrom), charge = 0, multiplicity = 1:

       Center              X                  Y                   Z               Mass       
    ------------   -----------------  -----------------  -----------------  -----------------
         C            0.406879159129    -1.216207607142    -0.165244584164    12.000000000000
         C           -0.177120840871    -0.009207607142     0.537755415836    12.000000000000
         O           -0.193120840871     1.087792392858    -0.363244584164    15.994914619570
         H           -0.571120840871     1.841792392858     0.117755415836     1.007825032230
         H            0.433879159129    -2.082207607142     0.502755415836     1.007825032230
         H           -0.184120840871    -1.471207607142    -1.050244584164     1.007825032230
         H            1.423879159129    -1.006207607142    -0.511244584164     1.007825032230
         H            0.428879159129     0.257792392858     1.407755415836     1.007825032230
         H           -1.202120840871    -0.213207607142     0.862755415836     1.007825032230

  Nuclear repulsion =   81.817557262605646

  ==> Basis Set <==

  Basis Set: AUG-CC-PVTZ
    Blend: AUG-CC-PVTZ
    Number of shells: 96
    Number of basis function: 276
    Number of Cartesian functions: 315
    Spherical Harmonics?: true
    Max angular momentum: 3

  ==> DFJKGrad: Density-Fitted SCF Gradients <==

    Gradient:                    1
    J tasked:                  Yes
    K tasked:                   No
    wK tasked:                  No
    OpenMP threads:              8
    Integrals threads:           8
    Memory [MiB]:             2861
    Schwarz Cutoff:          0E+00
    Fitting Condition:       1E-10

   => Auxiliary Basis Set <=

  Basis Set: (AUG-CC-PVTZ AUX)
    Blend: AUG-CC-PVTZ-JKFIT
    Number of shells: 174
    Number of basis function: 588
    Number of Cartesian functions: 723
    Spherical Harmonics?: true
    Max angular momentum: 4

  ==> DFT Potential <==

   => Composite Functional: PBE <= 

    PBE GGA Exchange-Correlation Functional

    J.P. Perdew et. al., Phys. Rev. Lett., 77(18), 3865-3868, 1996


    Deriv               =              1
    GGA                 =           TRUE
    Meta                =          FALSE

    Exchange Hybrid     =          FALSE
    MP2 Hybrid          =          FALSE

   => Exchange Functionals <=

    1.0000     XC_GGA_X_PBE

   => Correlation Functionals <=

    1.0000     XC_GGA_C_PBE

   => Molecular Quadrature <=

    Radial Scheme          =       TREUTLER
    Pruning Scheme         =           FLAT
    Nuclear Scheme         =       TREUTLER

    BS radius alpha        =              1
    Pruning alpha          =              1
    Radial Points          =             75
    Spherical Points       =            302
    Total Points           =         203850
    Total Blocks           =           1578
    Max Points             =            256
    Max Functions          =            276


  -Total Gradient:
     Atom            X                  Y                   Z
    ------   -----------------  -----------------  -----------------
       1       -0.000222668176    -0.002292712659     0.002028693137
       2       -0.000999480190     0.004150716314     0.001368469211
       3        0.000067163493    -0.009611836892     0.007974545684
       4       -0.000667701716    -0.000711900897     0.002621674705
       5        0.000051534002     0.001901530455    -0.001690091402
       6        0.002882893574     0.001168259944     0.001405879891
       7       -0.003153220078    -0.000580769331    -0.000661791184
       8       -0.002969417459     0.001770447517    -0.008047449856
       9        0.005013134050     0.004183918641    -0.004988309689


*** tstop() called on chem-mcdaniel-u01 at Fri Sep 18 20:52:16 2020
Module time:
	user time   =      25.06 seconds =       0.42 minutes
	system time =       0.35 seconds =       0.01 minutes
	total time  =          3 seconds =       0.05 minutes
Total time:
	user time   =     169.87 seconds =       2.83 minutes
	system time =       2.51 seconds =       0.04 minutes
	total time  =         69 seconds =       1.15 minutes

    Psi4 stopped on: Friday, 18 September 2020 08:52PM
    Psi4 wall time for execution: 0:01:09.40

*** Psi4 exiting successfully. Buy a developer a beer!
