This is a parallel run on 4 processors
/home/leeping/opt/qchem40/bin/parallel.csh,  , chcl3.in, 4, 1, ./qchem26380/
MPIRUN in parallel.csh is /home/leeping/opt/openmpi-1.4.2.intel/bin/mpirun
P4_RSHCOMMAND in parallel.csh is ssh
QCOUTFILE is stdout
Q-Chem machineFile is /home/leeping/opt/qchem40/bin/mpi/machines 
Parallel job running on 4 processors.
Parallel job running on 4 processors.
Parallel job running on 4 processors.
Parallel job running on 4 processors.
                  Welcome to Q-Chem
     A Quantum Leap Into The Future Of Chemistry

 Y. Shao, L. Fusti-Molnar, Y. Jung, J. Kussmann, C. Ochsenfeld,
 S. T. Brown, A. T. B. Gilbert, L. V. Slipchenko,S. V. Levchenko,
 D. P. O'Neill, R. A. DiStasio Jr., R. C. Lochan, T. Wang,
 G. J. O. Beran, N. A. Besley, J. M. Herbert, C. Y. Lin,
 T. Van Voorhis, S. H. Chien, A. Sodt, R. P. Steele, 
 V. A. Rassolov, P. E. Maslen, P. P. Korambath, R. D. Adamson,
 B. Austin, J. Baker, E. F. C. Byrd, H. Dachsel, R. J. Doerksen,
 A. Dreuw, B. D. Dunietz, A. D. Dutoi, T. R. Furlani,
 S. R. Gwaltney, A. Heyden, S. Hirata, C.-P. Hsu, G. Kedziora,
 R. Z. Khaliullin, P. Klunzinger, A. M. Lee, M. S. Lee, W. Liang,
 I. Lotan, N. Nair, B. Peters, E. I. Proynov, P. A. Pieniazek, 
 Y. M. Rhee, J. Ritchie, E. Rosta, C. D. Sherrill, 
 A. C. Simmonett, J. E. Subotnik, H. L. Woodcock III,
 W. Zhang, A. T. Bell, A. K. Chakraborty, D. M. Chipman,
 F. J. Keil, A. Warshel, W. J. Hehre, H. F. Schaefer III,
 J. Kong, A. I. Krylov, P. M. W. Gill, M. Head-Gordon,
 Q-Chem, Version 3.1, Q-Chem, Inc., Pittsburgh, PA (2007).

 Additional authors for Version 3.1: 
 Z. Gan, Y. Zhao, N. E. Schultz, D. Truhlar, E. Epifanovsky and M. Oana.

 Additional authors for Version 3.2: 
 R. Baer, B. R. Brooks, D. Casanova, J.-D. Chai, C.-L. Cheng, 
 C. Cramer, D. Crittenden, A. Ghysels, G. Hawkins, E. G. Hohenstein, 
 C. Kelley, W. Kurlancheek, D. Liotard, E. Livshits, P. Manohar, 
 A. Marenich, D. Neuhauser, R. Olson, M. A. Rohrdanz, K. S. Thanthiriwatte, 
 A. J. W. Thom, V. Vanovschi, C. F. Williams, Q. Wu and Z.-Q. You. 


 Intel X86 Linux Version

 Q-chem begins on Tue Nov 27 03:17:39 2012  

Host: 
0
 Using version located at /home/leeping/opt/qchem40/bin/qchem

 Parallel job on  4  processors

theFileMan(): MAXOPENFILES=974 MAX_SUB_FILE_NUM=16
Maximum size of a physical file is 2.0 GB, maximum size of a tmp-file is 32.0 GB


Total Memory Limit in MB = 2000
Mega-Array Size in MB = 62
Finally everything over in PARseQInput

--------------------------------------------------------------
User input:
--------------------------------------------------------------
$molecule
0 1
 C                  0.00000000    0.00000000    0.47563839
 H                  0.00000000    0.00000000    1.56203774
 Cl                -1.41973774   -0.81968597   -0.08658571
 Cl                -0.00000000    1.63937194   -0.08658571
 Cl                 1.41973774   -0.81968597   -0.08658571
$end

$rem
jobtype sp
moprop 2
scf_convergence 8
basis aug-cc-pvdz
exchange pbe0
symmetry off
sym_ignore true
$end

--------------------------------------------------------------
 ----------------------------------------------------
       Standard Nuclear Orientation (Angstroms)
    I     Atom         X            Y            Z
 ----------------------------------------------------
    1      C       0.000000     0.000000     0.475638
    2      H       0.000000     0.000000     1.562038
    3      Cl     -1.419738    -0.819686    -0.086586
    4      Cl      0.000000     1.639372    -0.086586
    5      Cl      1.419738    -0.819686    -0.086586
 ----------------------------------------------------
 Nuclear Repulsion Energy =   269.5411015475 hartrees
 There are       29 alpha and       29 beta electrons

 Q-Chem warning in module BasisType.C, line 1073:

 SAD: How to set up polarization functions for non-Pople basis?

 Requested basis set is aug-cc-pVDZ
 There are 47 shells and 113 basis functions

Total QAlloc Memory Limit   2000 MB
Mega-Array Size        61 MB
MEM_STATIC part        62 MB

finished with qalloc call

                       Distance Matrix (Angstroms)
             C (  1)   H (  2)   Cl(  3)   Cl(  4)
   H (  2)  1.086399
   Cl(  3)  1.733100  2.324973
   Cl(  4)  1.733100  2.324973  2.839475
   Cl(  5)  1.733100  2.324973  2.839475  2.839475
 
 Job number = 2, Threshold = 1.00E-11
Integral type ranges set in mkLRange.C for JobNum: 2  <1-21|1-21>
Symmetry turned off temporarily
 Using the largest function pair in Schwarz integrals
Symmetry turned back on
 A cutoff of  1.0D-11 yielded   1128 shell pairs
 There are      6572 function pairs (      7552 Cartesian)
 Job number = 11, Threshold = 1.00E-11
Integral type ranges set in mkLRange.C for JobNum: 11  <1-21|22-22>
 Smallest overlap matrix eigenvalue = 4.33E-04
 Multipole matrices computed through 2nd order

  Scale SEOQF with 1.000000e-01/1.000000e-01/1.000000e-01

 Standard Electronic Orientation quadrupole field applied
 Nucleus-field energy     =     0.0000000069 hartrees
 Guess from superposition of atomic densities
 Warning:  Energy on first SCF cycle will be non-variational
scfman initvdwdat 
 A restricted hybrid HF-DFT SCF calculation will be
 performed using Pulay DIIS extrapolation
 Exchange:     0.2500 Hartree-Fock + 0.7500 PBE
 Correlation:  1.0000 PBE
 Using SG-1 standard quadrature grid
 SCF converges when DIIS error is below 1.0E-08
Finding J and K together
 Job number = 22, Threshold = 1.00E-11
Integral type ranges set in mkLRange.C for JobNum: 22  <1-21|1-21>
Storing 25.50% of integrals
Target Grid is being used
 CPU 0.00 s  wall 0.00 s
NTotSigB2 = 218517
Total Number of Grid Points = 3480
 CPU 0.06 s  wall 0.06 s

 Total DFTman time = 0.06 CPUs 0.06 Wall
Fock build time:  0.63 s (CPU) 0.63 s (wall)
DIIS Errors:  Max 7.27E-01 RMS 4.71E-02

Current DIIS subspace size = 1
REM_GRID_RESTART_DIIS = 0

 ---------------------------------------
  Cycle       Energy         DIIS Error
 ---------------------------------------
    1   -1419.5046390389      4.71E-02  00000
Finding J and K together
 Job number = 22, Threshold = 1.00E-11
Integral type ranges set in mkLRange.C for JobNum: 22  <1-21|1-21>
Storing 25.50% of integrals
Reusing in-core integrals buffer for job 22
Target Grid is being used
 CPU 0.00 s  wall 0.00 s
NTotSigB2 = 218517
Total Number of Grid Points = 3480
 CPU 0.07 s  wall 0.07 s

 Total DFTman time = 0.07 CPUs 0.07 Wall
Fock build time:  0.58 s (CPU) 0.58 s (wall)
DIIS Errors:  Max 5.84E-02 RMS 3.10E-03

Current DIIS subspace size = 2
REM_GRID_RESTART_DIIS = 0

    2   -1418.8036871017      3.10E-03  00000
Finding J and K together
 Job number = 22, Threshold = 1.00E-11
Integral type ranges set in mkLRange.C for JobNum: 22  <1-21|1-21>
Storing 25.50% of integrals
Reusing in-core integrals buffer for job 22
Target Grid is being used
 CPU 0.00 s  wall 0.00 s
NTotSigB2 = 218517
Total Number of Grid Points = 3480
 CPU 0.07 s  wall 0.07 s

 Total DFTman time = 0.07 CPUs 0.07 Wall
Fock build time:  0.58 s (CPU) 0.58 s (wall)
DIIS Errors:  Max 9.53E-02 RMS 4.96E-03

Current DIIS subspace size = 3
REM_GRID_RESTART_DIIS = 0

    3   -1418.7824365373      4.96E-03  00000
Finding J and K together
 Job number = 22, Threshold = 1.00E-11
Integral type ranges set in mkLRange.C for JobNum: 22  <1-21|1-21>
Storing 25.50% of integrals
Reusing in-core integrals buffer for job 22
Target Grid is being used
 CPU 0.00 s  wall 0.00 s
NTotSigB2 = 218517
Total Number of Grid Points = 3480
 CPU 0.07 s  wall 0.07 s

 Total DFTman time = 0.07 CPUs 0.07 Wall
Fock build time:  0.58 s (CPU) 0.58 s (wall)
DIIS Errors:  Max 5.73E-03 RMS 3.45E-04

Current DIIS subspace size = 4
REM_GRID_RESTART_DIIS = 0

    4   -1418.8198274604      3.45E-04  00000
Finding J and K together
 Job number = 22, Threshold = 1.00E-11
Integral type ranges set in mkLRange.C for JobNum: 22  <1-21|1-21>
Storing 25.50% of integrals
Reusing in-core integrals buffer for job 22
Target Grid is being used
 CPU 0.00 s  wall 0.00 s
NTotSigB2 = 218517
Total Number of Grid Points = 3480
 CPU 0.07 s  wall 0.07 s

 Total DFTman time = 0.07 CPUs 0.07 Wall
Fock build time:  0.58 s (CPU) 0.58 s (wall)
DIIS Errors:  Max 2.02E-03 RMS 1.21E-04

Current DIIS subspace size = 5
REM_GRID_RESTART_DIIS = 0

    5   -1418.8200132756      1.21E-04  00000
Finding J and K together
 Job number = 22, Threshold = 1.00E-11
Integral type ranges set in mkLRange.C for JobNum: 22  <1-21|1-21>
Storing 25.50% of integrals
Reusing in-core integrals buffer for job 22
Target Grid is being used
 CPU 0.00 s  wall 0.00 s
NTotSigB2 = 218517
Total Number of Grid Points = 3480
 CPU 0.07 s  wall 0.07 s

 Total DFTman time = 0.07 CPUs 0.07 Wall
Fock build time:  0.58 s (CPU) 0.58 s (wall)
DIIS Errors:  Max 2.20E-04 RMS 1.84E-05

Current DIIS subspace size = 6
REM_GRID_RESTART_DIIS = 0

    6   -1418.8200386124      1.84E-05  00000
Finding J and K together
 Job number = 22, Threshold = 1.00E-11
Integral type ranges set in mkLRange.C for JobNum: 22  <1-21|1-21>
Storing 25.50% of integrals
Reusing in-core integrals buffer for job 22
Target Grid is being used
 CPU 0.00 s  wall 0.00 s
NTotSigB2 = 218517
Total Number of Grid Points = 3480
 CPU 0.07 s  wall 0.07 s

 Total DFTman time = 0.07 CPUs 0.07 Wall
Fock build time:  0.58 s (CPU) 0.58 s (wall)
DIIS Errors:  Max 8.15E-05 RMS 6.15E-06

Current DIIS subspace size = 7
REM_GRID_RESTART_DIIS = 0

    7   -1418.8200391742      6.15E-06  00000
Finding J and K together
 Job number = 22, Threshold = 1.00E-11
Integral type ranges set in mkLRange.C for JobNum: 22  <1-21|1-21>
Storing 25.50% of integrals
Reusing in-core integrals buffer for job 22
Target Grid is being used
 CPU 0.00 s  wall 0.00 s
NTotSigB2 = 218517
Total Number of Grid Points = 3480
 CPU 0.07 s  wall 0.07 s

 Total DFTman time = 0.07 CPUs 0.07 Wall
Fock build time:  0.58 s (CPU) 0.58 s (wall)
DIIS Errors:  Max 1.02E-05 RMS 8.63E-07

Current DIIS subspace size = 8
REM_GRID_RESTART_DIIS = 0

    8   -1418.8200392468      8.63E-07  00000
Finding J and K together
 Job number = 22, Threshold = 1.00E-11
Integral type ranges set in mkLRange.C for JobNum: 22  <1-21|1-21>
Storing 25.50% of integrals
Reusing in-core integrals buffer for job 22
Target Grid is being used
 CPU 0.00 s  wall 0.00 s
NTotSigB2 = 218517
Total Number of Grid Points = 3480
 CPU 0.07 s  wall 0.07 s

 Total DFTman time = 0.07 CPUs 0.07 Wall
Fock build time:  0.58 s (CPU) 0.58 s (wall)
DIIS Errors:  Max 4.04E-06 RMS 2.68E-07

Current DIIS subspace size = 9
REM_GRID_RESTART_DIIS = 0

    9   -1418.8200392486      2.68E-07  00000
Finding J and K together
 Job number = 22, Threshold = 1.00E-11
Integral type ranges set in mkLRange.C for JobNum: 22  <1-21|1-21>
Storing 25.50% of integrals
Reusing in-core integrals buffer for job 22
Target Grid is being used
 CPU 0.00 s  wall 0.00 s
NTotSigB2 = 218517
Total Number of Grid Points = 3480
 CPU 0.11 s  wall 0.11 s

 Total DFTman time = 0.11 CPUs 0.11 Wall
Fock build time:  0.62 s (CPU) 0.63 s (wall)
DIIS Errors:  Max 9.81E-07 RMS 7.21E-08

Current DIIS subspace size = 10
REM_GRID_RESTART_DIIS = 0

   10   -1418.8200392474      7.21E-08  00000
Finding J and K together
 Job number = 22, Threshold = 1.00E-11
Integral type ranges set in mkLRange.C for JobNum: 22  <1-21|1-21>
Storing 25.50% of integrals
Reusing in-core integrals buffer for job 22
Target Grid is being used
 CPU 0.00 s  wall 0.00 s
NTotSigB2 = 218517
Total Number of Grid Points = 3480
 CPU 0.06 s  wall 0.07 s

 Total DFTman time = 0.06 CPUs 0.07 Wall
Fock build time:  0.78 s (CPU) 0.78 s (wall)
DIIS Errors:  Max 2.14E-07 RMS 1.49E-08

Current DIIS subspace size = 11
REM_GRID_RESTART_DIIS = 0

   11   -1418.8200392488      1.49E-08  00000
Finding J and K together
 Job number = 22, Threshold = 1.00E-11
Integral type ranges set in mkLRange.C for JobNum: 22  <1-21|1-21>
Storing 25.50% of integrals
Reusing in-core integrals buffer for job 22
Target Grid is being used
 CPU 0.00 s  wall 0.00 s
NTotSigB2 = 218517
Total Number of Grid Points = 3480
 CPU 0.06 s  wall 0.06 s

 Total DFTman time = 0.06 CPUs 0.06 Wall
Fock build time:  0.57 s (CPU) 0.57 s (wall)
DIIS Errors:  Max 3.50E-08 RMS 2.75E-09

Current DIIS subspace size = 12
REM_GRID_RESTART_DIIS = 0

   12   -1418.8200392479      2.75E-09  00000 Convergence criterion met
 ---------------------------------------
 SCF time:  CPU 7.30 s  wall 7.31 s
 SCF   energy in the final basis set = -1418.8200392479
 Total energy in the final basis set = -1418.8200392479
      ==================================================== 
      ===                                              === 
      ===      MO-based Calculation of Properties      === 
      ===                                              === 
      ===          J.Kussmann and C.Ochsenfeld         === 
      ===                                              === 
      ==================================================== 

WARNING: SYMMETRY USAGE disabled in MO-CPSCF for now... 

 --> static polarizability

Now forming Dipole-matrix (explicitly)... 
...done! 

  DIIS-Info:
  starting crit.:                        1.0e+00
  Max. dimension of DIIS-subspace:            15
  Mode: cyclic vector sampling, shifting vectors if max. dimension is reached.

  ++++++++++++++++++++++++++++
  ++++ TDSCF  - 1st order ++++
  ++++++++++++++++++++++++++++

  ConvCrit:  1.0e-03       Max. Iter:    50
  Treat Ex/Ey/Ez together...

    FREQUENCY   1:         0.0000000000 a.u.

  ----------------------------------------------------------------------------------------
     Iter              Error Ex           Error Ey          Error Ez          Converged
  ----------------------------------------------------------------------------------------
 Job number = 31, Threshold = 1.00E-11
Integral type ranges set in mkLRange.C for JobNum: 31  <1-21|1-21>
Storing 25.50% of integrals
 CPU 0.00 s  wall 0.00 s
NTotSigB2 = 917247
Total Number of Grid Points = 14806
 CPU 0.75 s  wall 0.75 s

 Total DFTman time = 0.75 CPUs 0.75 Wall

 =======================================================
   Intermediate polarization tensor
 =======================================================
   ISOTROPIC:       29.23055631
   ANISOTROPIC:     15.35832627
   Trace =          87.69166893
   Full Tensor:
         34.34935271       0.00000019       0.00000010
          0.00000019      34.35064401       0.00092658
          0.00000010       0.00092658      18.99167221
 =======================================================

        0          10000000000.0000000000  (isotropic)

 Job number = 31, Threshold = 1.00E-11
Integral type ranges set in mkLRange.C for JobNum: 31  <1-21|1-21>
Storing 25.50% of integrals
 CPU 0.00 s  wall 0.00 s
NTotSigB2 = 917247
Total Number of Grid Points = 14806
 CPU 0.76 s  wall 0.76 s

 Total DFTman time = 0.76 CPUs 0.76 Wall

 =======================================================
   Intermediate polarization tensor
 =======================================================
   ISOTROPIC:       78.69671731
   ANISOTROPIC:     15.49511595
   Trace =         236.09015194
   Full Tensor:
         83.86330815      -0.00000037      -0.00000030
         -0.00000037      83.86020359      -0.00060415
         -0.00000030      -0.00060415      68.36664019
 =======================================================

        1            49.4661610033  (isotropic)

 Job number = 31, Threshold = 1.00E-11
Integral type ranges set in mkLRange.C for JobNum: 31  <1-21|1-21>
Storing 25.50% of integrals
 CPU 0.00 s  wall 0.00 s
NTotSigB2 = 917247
Total Number of Grid Points = 14806
 CPU 0.76 s  wall 0.76 s

 Total DFTman time = 0.76 CPUs 0.76 Wall

 =======================================================
   Intermediate polarization tensor
 =======================================================
   ISOTROPIC:       60.22088697
   ANISOTROPIC:     13.91425213
   Trace =         180.66266091
   Full Tensor:
         64.85964170      -0.00000007      -0.00000002
         -0.00000007      64.85830029       0.00018550
         -0.00000007       0.00004597      50.94471891
 =======================================================

        2            18.4758303428  (isotropic)

 Job number = 31, Threshold = 1.00E-11
Integral type ranges set in mkLRange.C for JobNum: 31  <1-21|1-21>
Storing 25.50% of integrals
 CPU 0.00 s  wall 0.00 s
NTotSigB2 = 917247
Total Number of Grid Points = 14806
 CPU 0.76 s  wall 0.76 s

 Total DFTman time = 0.76 CPUs 0.76 Wall

 =======================================================
   Intermediate polarization tensor
 =======================================================
   ISOTROPIC:       54.66740143
   ANISOTROPIC:     16.06177852
   Trace =         164.00220430
   Full Tensor:
         60.02177155      -0.00000005      -0.00000009
         -0.00000005      60.02088365       0.00023676
         -0.00000005       0.00027411      43.95954911
 =======================================================

        3             5.5534855354  (isotropic)

 Job number = 31, Threshold = 1.00E-11
Integral type ranges set in mkLRange.C for JobNum: 31  <1-21|1-21>
Storing 25.50% of integrals
 CPU 0.00 s  wall 0.00 s
NTotSigB2 = 917247
Total Number of Grid Points = 14806
 CPU 0.76 s  wall 0.76 s

 Total DFTman time = 0.76 CPUs 0.76 Wall

 =======================================================
   Intermediate polarization tensor
 =======================================================
   ISOTROPIC:       53.91398642
   ANISOTROPIC:     16.18279574
   Trace =         161.74195927
   Full Tensor:
         59.30866545      -0.00000002       0.00000004
         -0.00000002      59.30783788       0.00027491
         -0.00000003       0.00022418      43.12545594
 =======================================================

        4             0.7534150123  (isotropic)

 Job number = 31, Threshold = 1.00E-11
Integral type ranges set in mkLRange.C for JobNum: 31  <1-21|1-21>
Storing 25.50% of integrals
 CPU 0.00 s  wall 0.00 s
NTotSigB2 = 917247
Total Number of Grid Points = 14806
 CPU 0.75 s  wall 0.76 s

 Total DFTman time = 0.75 CPUs 0.76 Wall

 =======================================================
   Intermediate polarization tensor
 =======================================================
   ISOTROPIC:       53.75144826
   ANISOTROPIC:     16.56831562
   Trace =         161.25434479
   Full Tensor:
         59.27462903      -0.00000005      -0.00000017
         -0.00000005      59.27381123       0.00027717
         -0.00000004       0.00029523      42.70590453
 =======================================================

        5             0.1625381604  (isotropic)

 Job number = 31, Threshold = 1.00E-11
Integral type ranges set in mkLRange.C for JobNum: 31  <1-21|1-21>
Storing 25.50% of integrals
 CPU 0.00 s  wall 0.00 s
NTotSigB2 = 917247
Total Number of Grid Points = 14806
 CPU 0.76 s  wall 0.76 s

 Total DFTman time = 0.76 CPUs 0.76 Wall

 =======================================================
   Intermediate polarization tensor
 =======================================================
   ISOTROPIC:       53.78575810
   ANISOTROPIC:     16.48060443
   Trace =         161.35727431
   Full Tensor:
         59.27970214      -0.00000003       0.00000005
         -0.00000003      59.27888367       0.00024776
         -0.00000004       0.00025861      42.79868850
 =======================================================

        6             0.0343098418  (isotropic)

 Job number = 31, Threshold = 1.00E-11
Integral type ranges set in mkLRange.C for JobNum: 31  <1-21|1-21>
Storing 25.50% of integrals
 CPU 0.00 s  wall 0.00 s
NTotSigB2 = 917247
Total Number of Grid Points = 14806
 CPU 0.75 s  wall 0.76 s

 Total DFTman time = 0.75 CPUs 0.76 Wall

 =======================================================
   Intermediate polarization tensor
 =======================================================
   ISOTROPIC:       53.77538746
   ANISOTROPIC:     16.51198311
   Trace =         161.32616238
   Full Tensor:
         59.27979180      -0.00000004      -0.00000017
         -0.00000004      59.27897184       0.00030328
         -0.00000004       0.00027402      42.76739874
 =======================================================

        7             0.0103706450  (isotropic)

 Job number = 31, Threshold = 1.00E-11
Integral type ranges set in mkLRange.C for JobNum: 31  <1-21|1-21>
Storing 25.50% of integrals
 CPU 0.00 s  wall 0.00 s
NTotSigB2 = 917247
Total Number of Grid Points = 14806
 CPU 0.75 s  wall 0.76 s

 Total DFTman time = 0.75 CPUs 0.76 Wall

 =======================================================
   Intermediate polarization tensor
 =======================================================
   ISOTROPIC:       53.77776453
   ANISOTROPIC:     16.50434498
   Trace =         161.33329359
   Full Tensor:
         59.27962228      -0.00000003       0.00000009
         -0.00000003      59.27880342       0.00023097
         -0.00000004       0.00026360      42.77486789
 =======================================================

        8             0.0023770704  (isotropic)

 Job number = 31, Threshold = 1.00E-11
Integral type ranges set in mkLRange.C for JobNum: 31  <1-21|1-21>
Storing 25.50% of integrals
 CPU 0.00 s  wall 0.00 s
NTotSigB2 = 917247
Total Number of Grid Points = 14806
 CPU 0.76 s  wall 0.76 s

 Total DFTman time = 0.76 CPUs 0.76 Wall

 =======================================================
   Intermediate polarization tensor
 =======================================================
   ISOTROPIC:       53.77734087
   ANISOTROPIC:     16.50589663
   Trace =         161.33202261
   Full Tensor:
         59.27971808      -0.00000003      -0.00000020
         -0.00000003      59.27889474       0.00031258
         -0.00000004       0.00027104      42.77340980
 =======================================================

        9             0.0004236576  (isotropic)



  ===== TDSCF converged after 9 iterations... =====


 MO-TDSCF-Part of Polarizability time:  CPU      14.41 s  wall      14.42 s

               ======================================================= 
               ===                                                 === 
               ===                 Polarizability (a.u.)           === 
               ===                                                 === 
               ======================================================= 

   =================================================================================
   =   Frequency:            0.00000000 a.u.    =           0.00000000 eV          =
   =                                            =           0.00000000 x 10^-8 Hz  =
   =   Wavenumber:           0.00000000 cm^(-1)                                    =
   =================================================================================

      ISOTROPIC:     53.77734087          ANISOTROPIC:     16.50589663

      Trace =       161.33202261
      Full Tensor:

                     59.27971808           -0.00000003           -0.00000020
                     -0.00000003           59.27889474            0.00031258
                     -0.00000004            0.00027104           42.77340980


  Dipole moment:
  --------------

                   Ex              Ey              Ez               Total

  (a.u.)       0.00000002     -0.00048964      0.42863207         0.42863235
  (Debye)      0.00000006     -0.00124455      1.08947534         1.08947605



 --- DONE ---

 Hess-Part of Polarizability time:  CPU       0.00 s  wall       0.00 s

      ======================================================== 
      =   LinK/CFMM integral contractions as described in:   = 
      =                                                      = 
      =            J. Kussmann and C. Ochsenfeld,            = 
      =            J. Chem. Phys. DOI: 10.1063/1.2794033     = 
      =            (2007)                                    = 
      ======================================================== 

 MO-PROP time:  CPU 14.41 s  wall 14.42 s 

Symmetry turned off temporarily
 Analysis of SCF Wavefunction
 
 --------------------------------------------------------------
                    Orbital Energies (a.u.)
 --------------------------------------------------------------
 
 Alpha MOs
 -- Occupied --
*******-101.746-101.746 -10.418  -9.563  -9.563  -9.563  -7.298
 -7.298  -7.298  -7.288  -7.287  -7.287  -7.287  -7.287  -7.287
 -0.997  -0.877  -0.877  -0.676  -0.540  -0.506  -0.506  -0.379
 -0.379  -0.345  -0.345  -0.344  -0.324
 -- Virtual --
 -0.025   0.000   0.013   0.013   0.040   0.053   0.053   0.091
  0.091   0.100   0.105   0.108   0.108   0.137   0.137   0.137
  0.149   0.190   0.211   0.211   0.260   0.260   0.262   0.291
  0.296   0.296   0.360   0.360   0.373   0.386   0.404   0.404
  0.450   0.450   0.468   0.498   0.551   0.551   0.586   0.595
  0.596   0.608   0.716   0.716   0.737   0.773   0.773   0.801
  0.801   0.847   0.847   0.873   0.898   0.935   1.078   1.078
  1.089   1.141   1.141   1.158   1.168   1.168   1.187   1.195
  1.195   1.207   1.242   1.242   1.253   1.274   1.313   1.313
  1.489   1.620   1.620   1.708   1.708   1.875   1.949   1.949
  2.096   2.096   2.193   2.534
 --------------------------------------------------------------
 
          Ground-State Mulliken Net Atomic Charges

     Atom                 Charge (a.u.)
  ----------------------------------------
      1 C                    -0.700891
      2 H                     0.205198
      3 Cl                    0.165412
      4 Cl                    0.164868
      5 Cl                    0.165412
  ----------------------------------------
  Sum of atomic charges =     0.000000

 -----------------------------------------------------------------
                    Cartesian Multipole Moments
 -----------------------------------------------------------------
    Charge (ESU x 10^10)
                 0.0000
    Dipole Moment (Debye)
         X       0.0000      Y      -0.0012      Z       1.0895
       Tot       1.0895
    Quadrupole Moments (Debye-Ang)
        XX     -44.1859     XY       0.0000     YY     -44.1833
        XZ       0.0000     YZ      -0.0010     ZZ     -41.9708
    Octapole Moments (Debye-Ang^2)
       XXX       0.0000    XXY      -3.6624    XYY       0.0000
       YYY       3.6526    XXZ      -3.1169    XYZ       0.0000
       YYZ      -3.1188    XZZ       0.0000    YZZ      -0.0004
       ZZZ       3.2733
    Hexadecapole Moments (Debye-Ang^3)
      XXXX    -337.6947   XXXY       0.0000   XXYY    -112.5565
      XYYY       0.0000   YYYY    -337.6727   XXXZ       0.0000
      XXYZ       4.0023   XYYZ       0.0000   YYYZ      -4.0079
      XXZZ     -70.3987   XYZZ       0.0000   YYZZ     -70.3975
      XZZZ       0.0000   YZZZ      -0.0019   ZZZZ     -61.2857
 -----------------------------------------------------------------
 JobOver = TRUE
 Total job time:  21.82s(wall), 21.79s(cpu) 
 Tue Nov 27 03:18:01 2012

        *************************************************************
        *                                                           *
        *  Thank you very much for using Q-Chem.  Have a nice day.  *
        *                                                           *
        *************************************************************


*** MISSION COMPLETED -- STARFLEET OUT ***

 
*************************************************************
*************************************************************
 
Q-Chem machineFile is /home/leeping/opt/qchem40/bin/mpi/machines 
Parallel job running on 4 processors.
Parallel job running on 4 processors.
Parallel job running on 4 processors.
Parallel job running on 4 processors.
                  Welcome to Q-Chem
     A Quantum Leap Into The Future Of Chemistry

 Y. Shao, L. Fusti-Molnar, Y. Jung, J. Kussmann, C. Ochsenfeld,
 S. T. Brown, A. T. B. Gilbert, L. V. Slipchenko,S. V. Levchenko,
 D. P. O'Neill, R. A. DiStasio Jr., R. C. Lochan, T. Wang,
 G. J. O. Beran, N. A. Besley, J. M. Herbert, C. Y. Lin,
 T. Van Voorhis, S. H. Chien, A. Sodt, R. P. Steele, 
 V. A. Rassolov, P. E. Maslen, P. P. Korambath, R. D. Adamson,
 B. Austin, J. Baker, E. F. C. Byrd, H. Dachsel, R. J. Doerksen,
 A. Dreuw, B. D. Dunietz, A. D. Dutoi, T. R. Furlani,
 S. R. Gwaltney, A. Heyden, S. Hirata, C.-P. Hsu, G. Kedziora,
 R. Z. Khaliullin, P. Klunzinger, A. M. Lee, M. S. Lee, W. Liang,
 I. Lotan, N. Nair, B. Peters, E. I. Proynov, P. A. Pieniazek, 
 Y. M. Rhee, J. Ritchie, E. Rosta, C. D. Sherrill, 
 A. C. Simmonett, J. E. Subotnik, H. L. Woodcock III,
 W. Zhang, A. T. Bell, A. K. Chakraborty, D. M. Chipman,
 F. J. Keil, A. Warshel, W. J. Hehre, H. F. Schaefer III,
 J. Kong, A. I. Krylov, P. M. W. Gill, M. Head-Gordon,
 Q-Chem, Version 3.1, Q-Chem, Inc., Pittsburgh, PA (2007).

 Additional authors for Version 3.1: 
 Z. Gan, Y. Zhao, N. E. Schultz, D. Truhlar, E. Epifanovsky and M. Oana.

 Additional authors for Version 3.2: 
 R. Baer, B. R. Brooks, D. Casanova, J.-D. Chai, C.-L. Cheng, 
 C. Cramer, D. Crittenden, A. Ghysels, G. Hawkins, E. G. Hohenstein, 
 C. Kelley, W. Kurlancheek, D. Liotard, E. Livshits, P. Manohar, 
 A. Marenich, D. Neuhauser, R. Olson, M. A. Rohrdanz, K. S. Thanthiriwatte, 
 A. J. W. Thom, V. Vanovschi, C. F. Williams, Q. Wu and Z.-Q. You. 


 Intel X86 Linux Version

 Q-chem begins on Tue Nov 27 03:18:01 2012  

Host: 
0
 Using version located at /home/leeping/opt/qchem40/bin/qchem

 Parallel job on  4  processors

theFileMan(): MAXOPENFILES=974 MAX_SUB_FILE_NUM=16
Maximum size of a physical file is 2.0 GB, maximum size of a tmp-file is 32.0 GB


Total Memory Limit in MB = 2000
Mega-Array Size in MB = 62
RIMP2 parallel execution is limited to SCF only
Finally everything over in PARseQInput

--------------------------------------------------------------
User input:
--------------------------------------------------------------

$molecule
read
$end

$rem
jobtype sp
do_dma true
scf_convergence 8
exchange hf
correlation rimp2
basis aug-cc-pvtz
aux_basis rimp2-aug-cc-pvtz
symmetry off
sym_ignore true
$end
--------------------------------------------------------------
 ----------------------------------------------------
       Standard Nuclear Orientation (Angstroms)
    I     Atom         X            Y            Z
 ----------------------------------------------------
    1      C       0.000000     0.000000     0.475638
    2      H       0.000000     0.000000     1.562038
    3      Cl     -1.419738    -0.819686    -0.086586
    4      Cl      0.000000     1.639372    -0.086586
    5      Cl      1.419738    -0.819686    -0.086586
 ----------------------------------------------------
 Nuclear Repulsion Energy =   269.5411015475 hartrees
 There are       29 alpha and       29 beta electrons

 Q-Chem warning in module BasisType.C, line 1073:

 SAD: How to set up polarization functions for non-Pople basis?

 Requested basis set is aug-cc-pVTZ
 There are 71 shells and 219 basis functions

Total QAlloc Memory Limit   2000 MB
Mega-Array Size        61 MB
MEM_STATIC part        62 MB

finished with qalloc call

                       Distance Matrix (Angstroms)
             C (  1)   H (  2)   Cl(  3)   Cl(  4)
   H (  2)  1.086399
   Cl(  3)  1.733100  2.324973
   Cl(  4)  1.733100  2.324973  2.839475
   Cl(  5)  1.733100  2.324973  2.839475  2.839475
 
 Requested basis set is rimp2-aug-cc-pVTZ
 There are 153 shells and 593 basis functions
 Job number = 2, Threshold = 1.00E-11
Integral type ranges set in mkLRange.C for JobNum: 2  <1-61|1-61>
Symmetry turned off temporarily
 Using the largest function pair in Schwarz integrals
Symmetry turned back on
 A cutoff of  1.0D-11 yielded   2556 shell pairs
 There are     24464 function pairs (     33789 Cartesian)
 Job number = 11, Threshold = 1.00E-11
Integral type ranges set in mkLRange.C for JobNum: 11  <1-55|62-62>
 Smallest overlap matrix eigenvalue = 5.77E-05
 Multipole matrices computed through 2nd order

  Scale SEOQF with 1.000000e-01/1.000000e-01/1.000000e-01

 Standard Electronic Orientation quadrupole field applied
 Nucleus-field energy     =     0.0000000069 hartrees
 Guess from superposition of atomic densities
 Warning:  Energy on first SCF cycle will be non-variational
scfman initvdwdat 
 A restricted Hartree-Fock SCF calculation will be
 performed using Pulay DIIS extrapolation
 SCF converges when DIIS error is below 1.0E-08
Using Integral Screening
Finding J and K together
 ML is being used
 Job number = 22, Threshold = 1.00E-11
Integral type ranges set in mkLRange.C for JobNum: 22  <1-55|1-55>
Fock build time:  6.78 s (CPU) 6.78 s (wall)
DIIS Errors:  Max 6.05E-01 RMS 2.56E-02

Current DIIS subspace size = 1
REM_GRID_RESTART_DIIS = 0

 ---------------------------------------
  Cycle       Energy         DIIS Error
 ---------------------------------------
    1   -1417.9332434888      2.56E-02  00000
Ite = 2 IFIte = 1 Thresh = 1.00e-11
Finding J and K together
 Job number = 22, Threshold = 1.00E-11
Integral type ranges set in mkLRange.C for JobNum: 22  <1-55|1-55>
Fock build time:  11.43 s (CPU) 11.44 s (wall)
DIIS Errors:  Max 8.32E-02 RMS 3.99E-03

Current DIIS subspace size = 2
REM_GRID_RESTART_DIIS = 0

    2   -1416.8843422136      3.99E-03  00000
Ite = 3 IFIte = 2 Thresh = 1.00e-11
Using dP: JK
Finding J and K together
 ML is being used
 Job number = 22, Threshold = 1.00E-11
Integral type ranges set in mkLRange.C for JobNum: 22  <1-55|1-55>
Fock build time:  11.48 s (CPU) 11.49 s (wall)
DIIS Errors:  Max 7.56E-02 RMS 3.34E-03

Current DIIS subspace size = 3
REM_GRID_RESTART_DIIS = 0

    3   -1416.9382322771      3.34E-03  00000
Ite = 4 IFIte = 3 Thresh = 1.00e-11
Using dP: JK
Finding J and K together
 ML is being used
 Job number = 22, Threshold = 1.00E-11
Integral type ranges set in mkLRange.C for JobNum: 22  <1-55|1-55>
Fock build time:  11.36 s (CPU) 11.36 s (wall)
DIIS Errors:  Max 5.23E-03 RMS 3.47E-04

Current DIIS subspace size = 4
REM_GRID_RESTART_DIIS = 0

    4   -1416.9982122118      3.47E-04  00000
Ite = 5 IFIte = 4 Thresh = 1.00e-11
Using dP: JK
Finding J and K together
 ML is being used
 Job number = 22, Threshold = 1.00E-11
Integral type ranges set in mkLRange.C for JobNum: 22  <1-55|1-55>
Fock build time:  11.11 s (CPU) 11.13 s (wall)
DIIS Errors:  Max 1.24E-03 RMS 9.09E-05

Current DIIS subspace size = 5
REM_GRID_RESTART_DIIS = 0

    5   -1417.0002849872      9.09E-05  00000
Ite = 6 IFIte = 5 Thresh = 1.00e-11
Using dP: JK
Finding J and K together
 ML is being used
 Job number = 22, Threshold = 1.00E-11
Integral type ranges set in mkLRange.C for JobNum: 22  <1-55|1-55>
Fock build time:  11.02 s (CPU) 11.03 s (wall)
DIIS Errors:  Max 4.10E-04 RMS 2.85E-05

Current DIIS subspace size = 6
REM_GRID_RESTART_DIIS = 0

    6   -1417.0004563852      2.85E-05  00000
Ite = 7 IFIte = 6 Thresh = 1.00e-11
Using dP: JK
Finding J and K together
 ML is being used
 Job number = 22, Threshold = 1.00E-11
Integral type ranges set in mkLRange.C for JobNum: 22  <1-55|1-55>
Fock build time:  10.61 s (CPU) 10.62 s (wall)
DIIS Errors:  Max 1.93E-04 RMS 9.42E-06

Current DIIS subspace size = 7
REM_GRID_RESTART_DIIS = 0

    7   -1417.0004707842      9.42E-06  00000
Ite = 8 IFIte = 7 Thresh = 1.00e-11
Using dP: JK
Finding J and K together
 ML is being used
 Job number = 22, Threshold = 1.00E-11
Integral type ranges set in mkLRange.C for JobNum: 22  <1-55|1-55>
Fock build time:  10.31 s (CPU) 10.32 s (wall)
DIIS Errors:  Max 3.89E-05 RMS 2.45E-06

Current DIIS subspace size = 8
REM_GRID_RESTART_DIIS = 0

    8   -1417.0004723194      2.45E-06  00000
Ite = 9 IFIte = 8 Thresh = 1.00e-11
Using dP: JK
Finding J and K together
 ML is being used
 Job number = 22, Threshold = 1.00E-11
Integral type ranges set in mkLRange.C for JobNum: 22  <1-55|1-55>
Fock build time:  9.85 s (CPU) 9.85 s (wall)
DIIS Errors:  Max 1.07E-05 RMS 7.61E-07

Current DIIS subspace size = 9
REM_GRID_RESTART_DIIS = 0

    9   -1417.0004724570      7.61E-07  00000
Ite = 10 IFIte = 9 Thresh = 1.00e-11
Using dP: JK
Finding J and K together
 ML is being used
 Job number = 22, Threshold = 1.00E-11
Integral type ranges set in mkLRange.C for JobNum: 22  <1-55|1-55>
Fock build time:  9.47 s (CPU) 9.48 s (wall)
DIIS Errors:  Max 2.49E-06 RMS 1.73E-07

Current DIIS subspace size = 10
REM_GRID_RESTART_DIIS = 0

   10   -1417.0004724691      1.73E-07  00000
Ite = 11 IFIte = 10 Thresh = 1.00e-11
Using dP: JK
Finding J and K together
 ML is being used
 Job number = 22, Threshold = 1.00E-11
Integral type ranges set in mkLRange.C for JobNum: 22  <1-55|1-55>
Fock build time:  8.76 s (CPU) 8.76 s (wall)
DIIS Errors:  Max 8.65E-07 RMS 4.41E-08

Current DIIS subspace size = 11
REM_GRID_RESTART_DIIS = 0

   11   -1417.0004724701      4.41E-08  00000
Ite = 12 IFIte = 11 Thresh = 1.00e-11
Using dP: JK
Finding J and K together
 ML is being used
 Job number = 22, Threshold = 1.00E-11
Integral type ranges set in mkLRange.C for JobNum: 22  <1-55|1-55>
Fock build time:  7.86 s (CPU) 7.86 s (wall)
DIIS Errors:  Max 1.81E-07 RMS 1.23E-08

Current DIIS subspace size = 12
REM_GRID_RESTART_DIIS = 0

   12   -1417.0004724700      1.23E-08  00000
Ite = 13 IFIte = 12 Thresh = 1.00e-11
Using dP: JK
Finding J and K together
 ML is being used
 Job number = 22, Threshold = 1.00E-11
Integral type ranges set in mkLRange.C for JobNum: 22  <1-55|1-55>
Fock build time:  7.00 s (CPU) 7.00 s (wall)
DIIS Errors:  Max 6.51E-08 RMS 3.54E-09

Current DIIS subspace size = 13
REM_GRID_RESTART_DIIS = 0

   13   -1417.0004724698      3.54E-09  00000 Convergence criterion met
 ---------------------------------------
 SCF time:  CPU 127.40 s  wall 127.52 s
 SCF   energy in the final basis set = -1417.0004724698
 Total energy in the final basis set = -1417.0004724698
Symmetry turned off temporarily
 NBasAux in rimp2.F =          593

 RIMP2 job begins now...

 Form (P|Q)**(-1/2)...
 Entering AOints
 Job number = 66, Threshold = 1.00E-11
Integral type ranges set in mkLRange.C for JobNum: 66  <56-61|56-61>
 Job =            8
 
 Form (ia|P)...
 Entering first-index batching code with I1Strt =    1 batch size =   29
 Job number = 65, Threshold = 1.00E-11
Integral type ranges set in mkLRange.C for JobNum: 65  <1-55|56-61>
 Form BiaQ = (ia|P)*(P|Q)**(-1/2)...
 Form (ia|jb)...
 Components of the RIMP2 correlation energy:
        aaaa    correlation energy =        -0.1142759525 au
        abab    correlation energy =        -0.6561015911 au
        bbbb    correlation energy =        -0.1142759525 au
        non-Brillouin singles      =         0.0000000000 au

 Total  RIMP2   correlation energy =        -0.8846534960 au
        RIMP2         total energy =     -1417.8851259658 au

Symmetry turned back on
cdman primp2 timing      4.041 seconds
Symmetry turned off temporarily
 Analysis of SCF Wavefunction
 
 --------------------------------------------------------------
                    Orbital Energies (a.u.)
 --------------------------------------------------------------
 
 Alpha MOs
 -- Occupied --
*******-104.864-104.864 -11.427 -10.590 -10.590 -10.590  -8.056
 -8.056  -8.056  -8.054  -8.054  -8.054  -8.054  -8.054  -8.054
 -1.260  -1.119  -1.119  -0.872  -0.691  -0.635  -0.635  -0.507
 -0.507  -0.466  -0.466  -0.466  -0.447
 -- Virtual --
  0.033   0.062   0.069   0.069   0.109   0.114   0.114   0.122
  0.122   0.131   0.141   0.160   0.160   0.164   0.204   0.204
  0.205   0.247   0.257   0.257   0.299   0.304   0.304   0.330
  0.344   0.344   0.380   0.380   0.405   0.411   0.426   0.426
  0.440   0.449   0.449   0.489   0.489   0.506   0.525   0.538
  0.538   0.559   0.593   0.593   0.683   0.683   0.716   0.735
  0.735   0.749   0.794   0.797   0.797   0.819   0.850   0.850
  0.853   0.870   0.870   0.873   0.913   0.913   0.919   0.944
  0.946   0.946   0.966   1.007   1.007   1.038   1.066   1.066
  1.104   1.115   1.115   1.139   1.139   1.146   1.159   1.159
  1.192   1.278   1.278   1.286   1.305   1.305   1.382   1.382
  1.411   1.491   1.528   1.528   1.563   1.566   1.566   1.622
  1.622   1.663   1.734   1.734   1.746   1.754   1.773   1.773
  1.804   1.876   1.876   1.879   1.887   1.914   1.914   1.936
  1.979   1.979   2.166   2.166   2.390   2.528   2.528   2.587
  2.587   2.590   2.605   2.631   2.646   2.646   2.681   2.681
  2.709   2.726   2.726   2.756   2.940   2.940   2.974   2.974
  2.975   2.979   3.015   3.015   3.040   3.073   3.092   3.092
  3.108   3.108   3.140   3.141   3.141   3.145   3.173   3.186
  3.186   3.203   3.247   3.247   3.269   3.269   3.341   3.457
  3.518   3.518   3.566   3.714   3.714   3.792   3.806   3.806
  4.020   4.020   4.074   4.081   4.210   4.291   4.291   4.441
  4.441   4.757   4.757   4.793   4.957   4.957   5.246   5.246
  5.612   5.998   7.117   7.833   7.833  13.915
 --------------------------------------------------------------
 
          Ground-State Mulliken Net Atomic Charges

     Atom                 Charge (a.u.)
  ----------------------------------------
      1 C                     0.283086
      2 H                     0.273578
      3 Cl                   -0.185555
      4 Cl                   -0.185555
      5 Cl                   -0.185555
  ----------------------------------------
  Sum of atomic charges =     0.000000

 -----------------------------------------------------------------
                    Cartesian Multipole Moments
 -----------------------------------------------------------------
    Charge (ESU x 10^10)
                 0.0000
    Dipole Moment (Debye)
         X       0.0000      Y       0.0000      Z       1.2034
       Tot       1.2034
    Quadrupole Moments (Debye-Ang)
        XX     -44.7328     XY       0.0000     YY     -44.7328
        XZ       0.0000     YZ       0.0000     ZZ     -41.9992
    Octapole Moments (Debye-Ang^2)
       XXX       0.0000    XXY      -3.4340    XYY       0.0000
       YYY       3.4339    XXZ      -3.0291    XYZ       0.0000
       YYZ      -3.0291    XZZ       0.0000    YZZ       0.0000
       ZZZ       3.5661
    Hexadecapole Moments (Debye-Ang^3)
      XXXX    -340.0310   XXXY       0.0000   XXYY    -113.3437
      XYYY       0.0000   YYYY    -340.0310   XXXZ       0.0000
      XXYZ       4.3766   XYYZ       0.0000   YYYZ      -4.3766
      XXZZ     -70.6462   XYZZ       0.0000   YYZZ     -70.6462
      XZZZ       0.0000   YZZZ       0.0000   ZZZZ     -60.6029
 -----------------------------------------------------------------
 No analytic derivatives required
Entering efpman

                      DISTRIBUTED MULTIPOLE ANALYSIS

                         COORDINATES AND CHARGES

    N         X              Y              Z           CHARGE
    0   0.0000000000   0.0000000000   0.4756383900  -4.9006418984
    1   0.0000000000   0.0000000000   1.5620377400  -0.6085286154
    2  -1.4197377400  -0.8196859700  -0.0865857100 -17.0331062257
    3  -0.0000000000   1.6393719400  -0.0865857100 -17.0331063874
    4   1.4197377400  -0.8196859700  -0.0865857100 -17.0331062323
    5   0.0000000000   0.0000000000   1.0188380650  -0.5545403005
    6  -0.7098688700  -0.4098429850   0.1945263400  -0.2789901245
    7   0.0000000000   0.8196859700   0.1945263400  -0.2789901064
    8   0.7098688700  -0.4098429850   0.1945263400  -0.2789901094
    9   0.0000000000   0.0000000000   0.4756383900   6.0000000000
   10   0.0000000000   0.0000000000   1.5620377400   1.0000000000
   11  -1.4197377400  -0.8196859700  -0.0865857100  17.0000000000
   12  -0.0000000000   1.6393719400  -0.0865857100  17.0000000000
   13   1.4197377400  -0.8196859700  -0.0865857100  17.0000000000

                                 DIPOLES

    N        DX             DY             DZ
    0   0.0000000167  -0.0000000729  -0.4864506462
    1  -0.0000000016   0.0000000056   0.0709201074
    2   0.2426666845   0.1401038650   0.0646421584
    3  -0.0000000048  -0.2802072550   0.0646422207
    4  -0.2426666747   0.1401038476   0.0646421314
    5  -0.0000000123   0.0000000875  -0.1861586700
    6  -0.1125445535  -0.0649777690   0.0322085225
    7   0.0000000047   0.1299551994   0.0322083989
    8   0.1125445434  -0.0649777483   0.0322085708

                               QUADRUPOLES

    N        QXX            QXY            QXZ            QYY
    0   0.2901946654  -0.0000000096  -0.0000000145   0.2901949379
    1  -0.0015122580  -0.0000000003   0.0000000013  -0.0015122413
    2   1.0377034776   1.1670081892   0.7816449008  -0.3098402399
    3  -0.9836130104   0.0000000071  -0.0000000072   1.7114758287
    4   1.0377034913  -1.1670081801  -0.7816448715  -0.3098402507
    5   0.0726820247  -0.0000000020   0.0000000090   0.0726820395
    6  -0.1207187223  -0.0662210524   0.1089533978  -0.0442530383
    7  -0.0060201818   0.0000000182   0.0000000026  -0.1589513737
    8  -0.1207187000   0.0662210567  -0.1089534025  -0.0442530552

    N        QYZ            QZZ
    0   0.0000000104  -0.5803896034
    1  -0.0000000072   0.0030244993
    2   0.4512830558  -0.7278632377
    3  -0.9025661152  -0.7278628183
    4   0.4512830334  -0.7278632406
    5  -0.0000000659  -0.1453640642
    6   0.0629042548   0.1649717606
    7  -0.1258085014   0.1649715555
    8   0.0629042479   0.1649717552

                                OCTUPOLES

    N       OXXX           OXXY           OXXZ           OXYY
    0  -0.0000000023   0.5473448399   0.5480319884  -0.0000000020
    1   0.0000000013   0.0049693220  -0.0050701025   0.0000000005
    2   0.0179123499  -0.0360620547  -0.0178486338   0.0059699672
    3  -0.0000000116  -0.0464032590  -0.0844643555   0.0000000057
    4  -0.0179123442  -0.0360620529  -0.0178486260  -0.0059699484
    5  -0.0000000028  -0.1890436478   0.1622526260   0.0000000019
    6   0.0217842294   0.3216575231   0.1664429497   0.0072617004
    7   0.0000000039   0.3090801476  -0.5553913554   0.0000000015
    8  -0.0217841976   0.3216575266   0.1664429734  -0.0072616903

    N       OXYZ           OXZZ           OYYY           OYYZ
    0   0.0000000177   0.0000000043  -0.5473450277   0.5480319769
    1   0.0000000001  -0.0000000018  -0.0049693252  -0.0050701065
    2   0.0384605285  -0.0238823171   0.0498503659  -0.0622595238
    3  -0.0000000013   0.0000000059   0.0188257370   0.0043561828
    4  -0.0384605445   0.0238822926   0.0498503394  -0.0622595363
    5   0.0000000042   0.0000000009   0.1890435724   0.1622524471
    6   0.4167514120  -0.0290459298  -0.3048878649  -0.3147797694
    7  -0.0000000002  -0.0000000054  -0.3426194552   0.4070545455
    8  -0.4167514581   0.0290458879  -0.3048879088  -0.3147798009

    N       OYZZ           OZZZ
    0   0.0000001878  -1.0960639654
    1   0.0000000032   0.0101402091
    2  -0.0137883112   0.0801081576
    3   0.0275775220   0.0801081727
    4  -0.0137882865   0.0801081623
    5   0.0000000755  -0.3245050732
    6  -0.0167696582   0.1483368197
    7   0.0335393075   0.1483368099
    8  -0.0167696178   0.1483368275
 Total charge: -0.000000
Leaving efpman
 JobOver = TRUE
 Total job time:  131.84s(wall), 131.71s(cpu) 
 Tue Nov 27 03:20:13 2012

        *************************************************************
        *                                                           *
        *  Thank you very much for using Q-Chem.  Have a nice day.  *
        *                                                           *
        *************************************************************


*** MISSION COMPLETED -- STARFLEET OUT ***

