/home/leeping/opt/qchem40/bin/parallel.csh,  , dcm.in, 1, 1, ./qchem26125/
MPIRUN in parallel.csh is /home/leeping/opt/openmpi-1.4.2.intel/bin/mpirun
P4_RSHCOMMAND in parallel.csh is ssh
QCOUTFILE is stdout
Q-Chem machineFile is /home/leeping/opt/qchem40/bin/mpi/machines 
Parallel job running on 1 processors.
                  Welcome to Q-Chem
     A Quantum Leap Into The Future Of Chemistry

 Y. Shao, L. Fusti-Molnar, Y. Jung, J. Kussmann, C. Ochsenfeld,
 S. T. Brown, A. T. B. Gilbert, L. V. Slipchenko,S. V. Levchenko,
 D. P. O'Neill, R. A. DiStasio Jr., R. C. Lochan, T. Wang,
 G. J. O. Beran, N. A. Besley, J. M. Herbert, C. Y. Lin,
 T. Van Voorhis, S. H. Chien, A. Sodt, R. P. Steele, 
 V. A. Rassolov, P. E. Maslen, P. P. Korambath, R. D. Adamson,
 B. Austin, J. Baker, E. F. C. Byrd, H. Dachsel, R. J. Doerksen,
 A. Dreuw, B. D. Dunietz, A. D. Dutoi, T. R. Furlani,
 S. R. Gwaltney, A. Heyden, S. Hirata, C.-P. Hsu, G. Kedziora,
 R. Z. Khaliullin, P. Klunzinger, A. M. Lee, M. S. Lee, W. Liang,
 I. Lotan, N. Nair, B. Peters, E. I. Proynov, P. A. Pieniazek, 
 Y. M. Rhee, J. Ritchie, E. Rosta, C. D. Sherrill, 
 A. C. Simmonett, J. E. Subotnik, H. L. Woodcock III,
 W. Zhang, A. T. Bell, A. K. Chakraborty, D. M. Chipman,
 F. J. Keil, A. Warshel, W. J. Hehre, H. F. Schaefer III,
 J. Kong, A. I. Krylov, P. M. W. Gill, M. Head-Gordon,
 Q-Chem, Version 3.1, Q-Chem, Inc., Pittsburgh, PA (2007).

 Additional authors for Version 3.1: 
 Z. Gan, Y. Zhao, N. E. Schultz, D. Truhlar, E. Epifanovsky and M. Oana.

 Additional authors for Version 3.2: 
 R. Baer, B. R. Brooks, D. Casanova, J.-D. Chai, C.-L. Cheng, 
 C. Cramer, D. Crittenden, A. Ghysels, G. Hawkins, E. G. Hohenstein, 
 C. Kelley, W. Kurlancheek, D. Liotard, E. Livshits, P. Manohar, 
 A. Marenich, D. Neuhauser, R. Olson, M. A. Rohrdanz, K. S. Thanthiriwatte, 
 A. J. W. Thom, V. Vanovschi, C. F. Williams, Q. Wu and Z.-Q. You. 


 Intel X86 Linux Version

 Q-chem begins on Tue Nov 27 03:12:38 2012  

Host: 
0
 Using version located at /home/leeping/opt/qchem40/bin/qchem

 Parallel job on  1  processors

theFileMan(): MAXOPENFILES=974 MAX_SUB_FILE_NUM=16
Maximum size of a physical file is 2.0 GB, maximum size of a tmp-file is 32.0 GB


Total Memory Limit in MB = 2000
Mega-Array Size in MB = 62
Finally everything over in PARseQInput

--------------------------------------------------------------
User input:
--------------------------------------------------------------
$molecule
0 1
 C                  0.00000000    0.00000000    0.75758895
 H                  0.89463200   -0.00000000    1.37412495
 H                 -0.89463200   -0.00000000    1.37412495
 Cl                 0.00000000    1.47508500   -0.21452305
 Cl                 0.00000000   -1.47508500   -0.21452305
$end

$rem
jobtype sp
moprop 2
scf_convergence 8
basis aug-cc-pvdz
exchange pbe0
symmetry off
sym_ignore true
$end

--------------------------------------------------------------
 ----------------------------------------------------
       Standard Nuclear Orientation (Angstroms)
    I     Atom         X            Y            Z
 ----------------------------------------------------
    1      C       0.000000     0.000000     0.757589
    2      H       0.894632     0.000000     1.374125
    3      H      -0.894632     0.000000     1.374125
    4      Cl      0.000000     1.475085    -0.214523
    5      Cl      0.000000    -1.475085    -0.214523
 ----------------------------------------------------
 Nuclear Repulsion Energy =   134.4296280629 hartrees
 There are       21 alpha and       21 beta electrons

 Q-Chem warning in module BasisType.C, line 1073:

 SAD: How to set up polarization functions for non-Pople basis?

 Requested basis set is aug-cc-pVDZ
 There are 41 shells and 95 basis functions

Total QAlloc Memory Limit   2000 MB
Mega-Array Size        61 MB
MEM_STATIC part        62 MB

finished with qalloc call

                       Distance Matrix (Angstroms)
             C (  1)   H (  2)   H (  3)   Cl(  4)
   H (  2)  1.086500
   H (  3)  1.086500  1.789264
   Cl(  4)  1.766601  2.345217  2.345217
   Cl(  5)  1.766601  2.345217  2.345217  2.950170
 
 Job number = 2, Threshold = 1.00E-11
Integral type ranges set in mkLRange.C for JobNum: 2  <1-21|1-21>
Symmetry turned off temporarily
 Using the largest function pair in Schwarz integrals
Total number of integrals generated =           73326
Symmetry turned back on
 A cutoff of  1.0D-11 yielded    861 shell pairs
 There are      4665 function pairs (      5286 Cartesian)
 Job number = 11, Threshold = 1.00E-11
Integral type ranges set in mkLRange.C for JobNum: 11  <1-21|22-22>
Total number of integrals generated =           26430
 Smallest overlap matrix eigenvalue = 6.53E-04
 Multipole matrices computed through 2nd order

  Scale SEOQF with 1.000000e-01/1.000000e-01/1.000000e-01

 Standard Electronic Orientation quadrupole field applied
 Nucleus-field energy     =     0.0000000044 hartrees
 Guess from superposition of atomic densities
 Warning:  Energy on first SCF cycle will be non-variational
scfman initvdwdat 
 A restricted hybrid HF-DFT SCF calculation will be
 performed using Pulay DIIS extrapolation
 Exchange:     0.2500 Hartree-Fock + 0.7500 PBE
 Correlation:  1.0000 PBE
 Using SG-1 standard quadrature grid
 SCF converges when DIIS error is below 1.0E-08
Using Integral Screening
Finding J and K together
 ML is being used
 Job number = 22, Threshold = 1.00E-11
Integral type ranges set in mkLRange.C for JobNum: 22  <1-21|1-21>
Total number of integrals generated =         7991572
Target Grid is being used
 CPU 0.00 s  wall 0.00 s
NTotSigB2 = 662318
Total Number of Grid Points = 14970
 CPU 0.16 s  wall 0.15 s

 Total DFTman time = 0.16 CPUs 0.15 Wall
Fock build time:  0.92 s (CPU) 0.91 s (wall)
DIIS Errors:  Max 7.14E-01 RMS 4.76E-02

Current DIIS subspace size = 1
REM_GRID_RESTART_DIIS = 0

 ---------------------------------------
  Cycle       Energy         DIIS Error
 ---------------------------------------
    1    -959.7173200501      4.76E-02  00000
Ite = 2 IFIte = 1 Thresh = 1.00e-11
Finding J and K together
 Job number = 22, Threshold = 1.00E-11
Integral type ranges set in mkLRange.C for JobNum: 22  <1-21|1-21>
Total number of integrals generated =        14003007
Target Grid is being used
 CPU 0.00 s  wall 0.00 s
NTotSigB2 = 662318
Total Number of Grid Points = 14970
 CPU 0.18 s  wall 0.17 s

 Total DFTman time = 0.18 CPUs 0.17 Wall
Fock build time:  1.07 s (CPU) 1.07 s (wall)
DIIS Errors:  Max 2.59E-02 RMS 2.12E-03

Current DIIS subspace size = 2
REM_GRID_RESTART_DIIS = 0

    2    -959.3651413565      2.12E-03  00000
Ite = 3 IFIte = 2 Thresh = 1.00e-11
Using dP: JK
Finding J and K together
 ML is being used
 Job number = 22, Threshold = 1.00E-11
Integral type ranges set in mkLRange.C for JobNum: 22  <1-21|1-21>
Total number of integrals generated =        13911825
Target Grid is being used
 CPU 0.00 s  wall 0.00 s
NTotSigB2 = 662318
Total Number of Grid Points = 14970
 CPU 0.17 s  wall 0.17 s

 Total DFTman time = 0.17 CPUs 0.17 Wall
Fock build time:  1.17 s (CPU) 1.18 s (wall)
DIIS Errors:  Max 1.90E-02 RMS 1.39E-03

Current DIIS subspace size = 3
REM_GRID_RESTART_DIIS = 0

    3    -959.3690133983      1.39E-03  00000
Ite = 4 IFIte = 3 Thresh = 1.00e-11
Using dP: JK
Finding J and K together
 ML is being used
 Job number = 22, Threshold = 1.00E-11
Integral type ranges set in mkLRange.C for JobNum: 22  <1-21|1-21>
Total number of integrals generated =        13883454
Target Grid is being used
 CPU 0.00 s  wall 0.00 s
NTotSigB2 = 662318
Total Number of Grid Points = 14970
 CPU 0.17 s  wall 0.17 s

 Total DFTman time = 0.17 CPUs 0.17 Wall
Fock build time:  1.17 s (CPU) 1.17 s (wall)
DIIS Errors:  Max 7.61E-03 RMS 5.80E-04

Current DIIS subspace size = 4
REM_GRID_RESTART_DIIS = 0

    4    -959.3710037999      5.80E-04  00000
Ite = 5 IFIte = 4 Thresh = 1.00e-11
Using dP: JK
Finding J and K together
 ML is being used
 Job number = 22, Threshold = 1.00E-11
Integral type ranges set in mkLRange.C for JobNum: 22  <1-21|1-21>
Total number of integrals generated =        13832700
Target Grid is being used
 CPU 0.00 s  wall 0.00 s
NTotSigB2 = 662318
Total Number of Grid Points = 14970
 CPU 0.17 s  wall 0.17 s

 Total DFTman time = 0.17 CPUs 0.17 Wall
Fock build time:  1.16 s (CPU) 1.16 s (wall)
DIIS Errors:  Max 2.25E-03 RMS 1.50E-04

Current DIIS subspace size = 5
REM_GRID_RESTART_DIIS = 0

    5    -959.3713820103      1.50E-04  00000
Ite = 6 IFIte = 5 Thresh = 1.00e-11
Using dP: JK
Finding J and K together
 ML is being used
 Job number = 22, Threshold = 1.00E-11
Integral type ranges set in mkLRange.C for JobNum: 22  <1-21|1-21>
Total number of integrals generated =        13763778
Target Grid is being used
 CPU 0.00 s  wall 0.00 s
NTotSigB2 = 662318
Total Number of Grid Points = 14970
 CPU 0.17 s  wall 0.17 s

 Total DFTman time = 0.17 CPUs 0.17 Wall
Fock build time:  1.15 s (CPU) 1.15 s (wall)
DIIS Errors:  Max 2.27E-04 RMS 1.97E-05

Current DIIS subspace size = 6
REM_GRID_RESTART_DIIS = 0

    6    -959.3714077548      1.97E-05  00000
Ite = 7 IFIte = 6 Thresh = 1.00e-11
Using dP: JK
Finding J and K together
 ML is being used
 Job number = 22, Threshold = 1.00E-11
Integral type ranges set in mkLRange.C for JobNum: 22  <1-21|1-21>
Total number of integrals generated =        13640386
Target Grid is being used
 CPU 0.00 s  wall 0.00 s
NTotSigB2 = 662318
Total Number of Grid Points = 14970
 CPU 0.17 s  wall 0.17 s

 Total DFTman time = 0.17 CPUs 0.17 Wall
Fock build time:  1.13 s (CPU) 1.13 s (wall)
DIIS Errors:  Max 7.71E-05 RMS 5.36E-06

Current DIIS subspace size = 7
REM_GRID_RESTART_DIIS = 0

    7    -959.3714082340      5.36E-06  00000
Ite = 8 IFIte = 7 Thresh = 1.00e-11
Using dP: JK
Finding J and K together
 ML is being used
 Job number = 22, Threshold = 1.00E-11
Integral type ranges set in mkLRange.C for JobNum: 22  <1-21|1-21>
Total number of integrals generated =        13484552
Target Grid is being used
 CPU 0.00 s  wall 0.00 s
NTotSigB2 = 662318
Total Number of Grid Points = 14970
 CPU 0.17 s  wall 0.17 s

 Total DFTman time = 0.17 CPUs 0.17 Wall
Fock build time:  1.10 s (CPU) 1.10 s (wall)
DIIS Errors:  Max 1.01E-05 RMS 8.18E-07

Current DIIS subspace size = 8
REM_GRID_RESTART_DIIS = 0

    8    -959.3714082722      8.18E-07  00000
Ite = 9 IFIte = 8 Thresh = 1.00e-11
Using dP: JK
Finding J and K together
 ML is being used
 Job number = 22, Threshold = 1.00E-11
Integral type ranges set in mkLRange.C for JobNum: 22  <1-21|1-21>
Total number of integrals generated =        13157255
Target Grid is being used
 CPU 0.00 s  wall 0.00 s
NTotSigB2 = 662318
Total Number of Grid Points = 14970
 CPU 0.16 s  wall 0.17 s

 Total DFTman time = 0.16 CPUs 0.17 Wall
Fock build time:  1.08 s (CPU) 1.07 s (wall)
DIIS Errors:  Max 3.37E-06 RMS 2.19E-07

Current DIIS subspace size = 9
REM_GRID_RESTART_DIIS = 0

    9    -959.3714082725      2.19E-07  00000
Ite = 10 IFIte = 9 Thresh = 1.00e-11
Using dP: JK
Finding J and K together
 ML is being used
 Job number = 22, Threshold = 1.00E-11
Integral type ranges set in mkLRange.C for JobNum: 22  <1-21|1-21>
Total number of integrals generated =        12878255
Target Grid is being used
 CPU 0.00 s  wall 0.00 s
NTotSigB2 = 662318
Total Number of Grid Points = 14970
 CPU 0.16 s  wall 0.16 s

 Total DFTman time = 0.16 CPUs 0.16 Wall
Fock build time:  1.04 s (CPU) 1.04 s (wall)
DIIS Errors:  Max 7.44E-07 RMS 4.83E-08

Current DIIS subspace size = 10
REM_GRID_RESTART_DIIS = 0

   10    -959.3714082729      4.83E-08  00000
Ite = 11 IFIte = 10 Thresh = 1.00e-11
Using dP: JK
Finding J and K together
 ML is being used
 Job number = 22, Threshold = 1.00E-11
Integral type ranges set in mkLRange.C for JobNum: 22  <1-21|1-21>
Total number of integrals generated =        12511781
Target Grid is being used
 CPU 0.00 s  wall 0.00 s
NTotSigB2 = 662318
Total Number of Grid Points = 14970
 CPU 0.16 s  wall 0.16 s

 Total DFTman time = 0.16 CPUs 0.16 Wall
Fock build time:  1.00 s (CPU) 1.00 s (wall)
DIIS Errors:  Max 3.21E-07 RMS 2.04E-08

Current DIIS subspace size = 11
REM_GRID_RESTART_DIIS = 0

   11    -959.3714082725      2.04E-08  00000
Ite = 12 IFIte = 11 Thresh = 1.00e-11
Using dP: JK
Finding J and K together
 ML is being used
 Job number = 22, Threshold = 1.00E-11
Integral type ranges set in mkLRange.C for JobNum: 22  <1-21|1-21>
Total number of integrals generated =        12099800
Target Grid is being used
 CPU 0.00 s  wall 0.00 s
NTotSigB2 = 662318
Total Number of Grid Points = 14970
 CPU 0.15 s  wall 0.15 s

 Total DFTman time = 0.15 CPUs 0.15 Wall
Fock build time:  0.96 s (CPU) 0.96 s (wall)
DIIS Errors:  Max 1.93E-08 RMS 1.68E-09

Current DIIS subspace size = 12
REM_GRID_RESTART_DIIS = 0

   12    -959.3714082727      1.68E-09  00000 Convergence criterion met
 ---------------------------------------
 SCF time:  CPU 12.99 s  wall 12.99 s
 SCF   energy in the final basis set = -959.3714082727
 Total energy in the final basis set = -959.3714082727
      ==================================================== 
      ===                                              === 
      ===      MO-based Calculation of Properties      === 
      ===                                              === 
      ===          J.Kussmann and C.Ochsenfeld         === 
      ===                                              === 
      ==================================================== 

WARNING: SYMMETRY USAGE disabled in MO-CPSCF for now... 

 --> static polarizability

Now forming Dipole-matrix (explicitly)... 
...done! 

  DIIS-Info:
  starting crit.:                        1.0e+00
  Max. dimension of DIIS-subspace:            15
  Mode: cyclic vector sampling, shifting vectors if max. dimension is reached.

  ++++++++++++++++++++++++++++
  ++++ TDSCF  - 1st order ++++
  ++++++++++++++++++++++++++++

  ConvCrit:  1.0e-03       Max. Iter:    50
  Treat Ex/Ey/Ez together...

    FREQUENCY   1:         0.0000000000 a.u.

  ----------------------------------------------------------------------------------------
     Iter              Error Ex           Error Ey          Error Ez          Converged
  ----------------------------------------------------------------------------------------
 Job number = 31, Threshold = 1.00E-11
Integral type ranges set in mkLRange.C for JobNum: 31  <1-21|1-21>
Total number of integrals generated =        14003007
 CPU 0.00 s  wall 0.00 s
NTotSigB2 = 662318
Total Number of Grid Points = 14970
 CPU 0.50 s  wall 0.50 s

 Total DFTman time = 0.50 CPUs 0.50 Wall

 =======================================================
   Intermediate polarization tensor
 =======================================================
   ISOTROPIC:       25.59147333
   ANISOTROPIC:     14.97778726
   Trace =          76.77441999
   Full Tensor:
         20.89045947      -0.00000001      -0.00000004
         -0.00000001      35.57109479      -0.00000002
         -0.00000004      -0.00000002      20.31286572
 =======================================================

        0          10000000000.0000000000  (isotropic)

 Job number = 31, Threshold = 1.00E-11
Integral type ranges set in mkLRange.C for JobNum: 31  <1-21|1-21>
 CPU 0.00 s  wall 0.00 s
NTotSigB2 = 662318
Total Number of Grid Points = 14970
 CPU 0.50 s  wall 0.49 s

 Total DFTman time = 0.50 CPUs 0.49 Wall

 =======================================================
   Intermediate polarization tensor
 =======================================================
   ISOTROPIC:       57.47086490
   ANISOTROPIC:     23.05911087
   Trace =         172.41259469
   Full Tensor:
         44.35603033      -0.00000004       0.00000006
         -0.00000004      70.97390673       0.00000005
          0.00000006       0.00000005      57.08265763
 =======================================================

        1            31.8793915682  (isotropic)

 Job number = 31, Threshold = 1.00E-11
Integral type ranges set in mkLRange.C for JobNum: 31  <1-21|1-21>
 CPU 0.00 s  wall 0.00 s
NTotSigB2 = 662318
Total Number of Grid Points = 14970
 CPU 0.49 s  wall 0.49 s

 Total DFTman time = 0.49 CPUs 0.49 Wall

 =======================================================
   Intermediate polarization tensor
 =======================================================
   ISOTROPIC:       45.66344620
   ANISOTROPIC:     19.31406463
   Trace =         136.99033860
   Full Tensor:
         35.50052762      -0.00000003       0.00000002
         -0.00000003      57.59185215      -0.00000000
          0.00000003       0.00000001      43.89795883
 =======================================================

        2            11.8074186976  (isotropic)

 Job number = 31, Threshold = 1.00E-11
Integral type ranges set in mkLRange.C for JobNum: 31  <1-21|1-21>
 CPU 0.00 s  wall 0.00 s
NTotSigB2 = 662318
Total Number of Grid Points = 14970
 CPU 0.49 s  wall 0.49 s

 Total DFTman time = 0.49 CPUs 0.49 Wall

 =======================================================
   Intermediate polarization tensor
 =======================================================
   ISOTROPIC:       42.30725054
   ANISOTROPIC:     18.35928792
   Trace =         126.92175161
   Full Tensor:
         33.77223381      -0.00000003       0.00000001
         -0.00000003      54.17210063       0.00000001
          0.00000001       0.00000000      38.97741717
 =======================================================

        3             3.3561956640  (isotropic)

 Job number = 31, Threshold = 1.00E-11
Integral type ranges set in mkLRange.C for JobNum: 31  <1-21|1-21>
 CPU 0.00 s  wall 0.00 s
NTotSigB2 = 662318
Total Number of Grid Points = 14970
 CPU 0.50 s  wall 0.49 s

 Total DFTman time = 0.50 CPUs 0.49 Wall

 =======================================================
   Intermediate polarization tensor
 =======================================================
   ISOTROPIC:       41.74080709
   ANISOTROPIC:     18.29198923
   Trace =         125.22242126
   Full Tensor:
         33.60631605      -0.00000003       0.00000001
         -0.00000003      53.67601496      -0.00000001
          0.00000001       0.00000000      37.94009025
 =======================================================

        4             0.5664434502  (isotropic)

 Job number = 31, Threshold = 1.00E-11
Integral type ranges set in mkLRange.C for JobNum: 31  <1-21|1-21>
 CPU 0.00 s  wall 0.00 s
NTotSigB2 = 662318
Total Number of Grid Points = 14970
 CPU 0.50 s  wall 0.49 s

 Total DFTman time = 0.50 CPUs 0.49 Wall

 =======================================================
   Intermediate polarization tensor
 =======================================================
   ISOTROPIC:       41.68197511
   ANISOTROPIC:     18.31699313
   Trace =         125.04592533
   Full Tensor:
         33.60535127      -0.00000003       0.00000000
         -0.00000003      53.65209155       0.00000002
          0.00000001       0.00000000      37.78848251
 =======================================================

        5             0.0588319776  (isotropic)

 Job number = 31, Threshold = 1.00E-11
Integral type ranges set in mkLRange.C for JobNum: 31  <1-21|1-21>
 CPU 0.00 s  wall 0.00 s
NTotSigB2 = 662318
Total Number of Grid Points = 14970
 CPU 0.49 s  wall 0.49 s

 Total DFTman time = 0.49 CPUs 0.49 Wall

 =======================================================
   Intermediate polarization tensor
 =======================================================
   ISOTROPIC:       41.69436278
   ANISOTROPIC:     18.31090111
   Trace =         125.08308835
   Full Tensor:
         33.60544584      -0.00000003       0.00000002
         -0.00000003      53.65652927      -0.00000001
          0.00000001       0.00000000      37.82111324
 =======================================================

        6             0.0123876751  (isotropic)

 Job number = 31, Threshold = 1.00E-11
Integral type ranges set in mkLRange.C for JobNum: 31  <1-21|1-21>
 CPU 0.00 s  wall 0.00 s
NTotSigB2 = 662318
Total Number of Grid Points = 14970
 CPU 0.50 s  wall 0.49 s

 Total DFTman time = 0.50 CPUs 0.49 Wall

 =======================================================
   Intermediate polarization tensor
 =======================================================
   ISOTROPIC:       41.69299595
   ANISOTROPIC:     18.31192294
   Trace =         125.07898785
   Full Tensor:
         33.60547919      -0.00000003      -0.00000000
         -0.00000003      53.65632261       0.00000002
          0.00000001       0.00000000      37.81718606
 =======================================================

        7             0.0013668322  (isotropic)

 Job number = 31, Threshold = 1.00E-11
Integral type ranges set in mkLRange.C for JobNum: 31  <1-21|1-21>
 CPU 0.00 s  wall 0.00 s
NTotSigB2 = 662318
Total Number of Grid Points = 14970
 CPU 0.49 s  wall 0.49 s

 Total DFTman time = 0.49 CPUs 0.49 Wall

 =======================================================
   Intermediate polarization tensor
 =======================================================
   ISOTROPIC:       41.69346131
   ANISOTROPIC:     18.31149317
   Trace =         125.08038392
   Full Tensor:
         33.60548307      -0.00000003       0.00000003
         -0.00000003      53.65633398      -0.00000001
          0.00000001       0.00000000      37.81856686
 =======================================================

        8             0.0004653545  (isotropic)



  ===== TDSCF converged after 8 iterations... =====


 MO-TDSCF-Part of Polarizability time:  CPU      14.16 s  wall      14.17 s

               ======================================================= 
               ===                                                 === 
               ===                 Polarizability (a.u.)           === 
               ===                                                 === 
               ======================================================= 

   =================================================================================
   =   Frequency:            0.00000000 a.u.    =           0.00000000 eV          =
   =                                            =           0.00000000 x 10^-8 Hz  =
   =   Wavenumber:           0.00000000 cm^(-1)                                    =
   =================================================================================

      ISOTROPIC:     41.69346131          ANISOTROPIC:     18.31149317

      Trace =       125.08038392
      Full Tensor:

                     33.60548307           -0.00000003            0.00000003
                     -0.00000003           53.65633398           -0.00000001
                      0.00000001            0.00000000           37.81856686


  Dipole moment:
  --------------

                   Ex              Ey              Ez               Total

  (a.u.)      -0.00000008     -0.00000002      0.66065838         0.66065838
  (Debye)     -0.00000021     -0.00000004      1.67922807         1.67922807



 --- DONE ---

 Hess-Part of Polarizability time:  CPU       0.00 s  wall       0.00 s

      ======================================================== 
      =   LinK/CFMM integral contractions as described in:   = 
      =                                                      = 
      =            J. Kussmann and C. Ochsenfeld,            = 
      =            J. Chem. Phys. DOI: 10.1063/1.2794033     = 
      =            (2007)                                    = 
      ======================================================== 

 MO-PROP time:  CPU 14.17 s  wall 14.17 s 

Symmetry turned off temporarily
 Analysis of SCF Wavefunction
 
 --------------------------------------------------------------
                    Orbital Energies (a.u.)
 --------------------------------------------------------------
 
 Alpha MOs
 -- Occupied --
*******-101.734 -10.360  -9.549  -9.549  -7.284  -7.284  -7.274
 -7.274  -7.274  -7.274  -0.939  -0.858  -0.690  -0.516  -0.484
 -0.469  -0.349  -0.347  -0.329  -0.322
 -- Virtual --
 -0.017   0.004   0.018   0.024   0.050   0.066   0.089   0.097
  0.106   0.107   0.107   0.117   0.124   0.140   0.167   0.187
  0.218   0.228   0.251   0.283   0.304   0.324   0.330   0.364
  0.367   0.377   0.400   0.433   0.448   0.455   0.468   0.530
  0.535   0.549   0.560   0.573   0.600   0.661   0.670   0.775
  0.787   0.802   0.830   0.836   0.851   0.893   0.894   1.091
  1.108   1.124   1.125   1.180   1.193   1.195   1.196   1.199
  1.203   1.242   1.271   1.313   1.506   1.568   1.578   1.591
  1.688   1.864   1.899   1.914   2.026   2.058   2.127   2.194
  2.526   2.560
 --------------------------------------------------------------
 
          Ground-State Mulliken Net Atomic Charges

     Atom                 Charge (a.u.)
  ----------------------------------------
      1 C                    -0.187642
      2 H                     0.099084
      3 H                     0.099084
      4 Cl                   -0.005264
      5 Cl                   -0.005264
  ----------------------------------------
  Sum of atomic charges =     0.000000

 -----------------------------------------------------------------
                    Cartesian Multipole Moments
 -----------------------------------------------------------------
    Charge (ESU x 10^10)
                 0.0000
    Dipole Moment (Debye)
         X       0.0000      Y       0.0000      Z       1.6792
       Tot       1.6792
    Quadrupole Moments (Debye-Ang)
        XX     -31.5176     XY       0.0000     YY     -33.8474
        XZ       0.0000     YZ       0.0000     ZZ     -29.8021
    Octapole Moments (Debye-Ang^2)
       XXX       0.0000    XXY       0.0000    XYY       0.0000
       YYY       0.0000    XXZ       1.9766    XYZ       0.0000
       YYZ      -4.6918    XZZ       0.0000    YZZ       0.0000
       ZZZ       1.6549
    Hexadecapole Moments (Debye-Ang^3)
      XXXX     -41.8741   XXXY       0.0000   XXYY     -70.9613
      XYYY       0.0000   YYYY    -354.3981   XXXZ       0.0000
      XXYZ       0.0000   XYYZ       0.0000   YYYZ       0.0000
      XXZZ     -17.1756   XYZZ       0.0000   YYZZ     -71.2395
      XZZZ       0.0000   YZZZ       0.0000   ZZZZ     -72.0732
 -----------------------------------------------------------------
 JobOver = TRUE
 Total job time:  27.24s(wall), 27.22s(cpu) 
 Tue Nov 27 03:13:05 2012

        *************************************************************
        *                                                           *
        *  Thank you very much for using Q-Chem.  Have a nice day.  *
        *                                                           *
        *************************************************************


*** MISSION COMPLETED -- STARFLEET OUT ***

 
*************************************************************
*************************************************************
 
Q-Chem machineFile is /home/leeping/opt/qchem40/bin/mpi/machines 
Parallel job running on 1 processors.
                  Welcome to Q-Chem
     A Quantum Leap Into The Future Of Chemistry

 Y. Shao, L. Fusti-Molnar, Y. Jung, J. Kussmann, C. Ochsenfeld,
 S. T. Brown, A. T. B. Gilbert, L. V. Slipchenko,S. V. Levchenko,
 D. P. O'Neill, R. A. DiStasio Jr., R. C. Lochan, T. Wang,
 G. J. O. Beran, N. A. Besley, J. M. Herbert, C. Y. Lin,
 T. Van Voorhis, S. H. Chien, A. Sodt, R. P. Steele, 
 V. A. Rassolov, P. E. Maslen, P. P. Korambath, R. D. Adamson,
 B. Austin, J. Baker, E. F. C. Byrd, H. Dachsel, R. J. Doerksen,
 A. Dreuw, B. D. Dunietz, A. D. Dutoi, T. R. Furlani,
 S. R. Gwaltney, A. Heyden, S. Hirata, C.-P. Hsu, G. Kedziora,
 R. Z. Khaliullin, P. Klunzinger, A. M. Lee, M. S. Lee, W. Liang,
 I. Lotan, N. Nair, B. Peters, E. I. Proynov, P. A. Pieniazek, 
 Y. M. Rhee, J. Ritchie, E. Rosta, C. D. Sherrill, 
 A. C. Simmonett, J. E. Subotnik, H. L. Woodcock III,
 W. Zhang, A. T. Bell, A. K. Chakraborty, D. M. Chipman,
 F. J. Keil, A. Warshel, W. J. Hehre, H. F. Schaefer III,
 J. Kong, A. I. Krylov, P. M. W. Gill, M. Head-Gordon,
 Q-Chem, Version 3.1, Q-Chem, Inc., Pittsburgh, PA (2007).

 Additional authors for Version 3.1: 
 Z. Gan, Y. Zhao, N. E. Schultz, D. Truhlar, E. Epifanovsky and M. Oana.

 Additional authors for Version 3.2: 
 R. Baer, B. R. Brooks, D. Casanova, J.-D. Chai, C.-L. Cheng, 
 C. Cramer, D. Crittenden, A. Ghysels, G. Hawkins, E. G. Hohenstein, 
 C. Kelley, W. Kurlancheek, D. Liotard, E. Livshits, P. Manohar, 
 A. Marenich, D. Neuhauser, R. Olson, M. A. Rohrdanz, K. S. Thanthiriwatte, 
 A. J. W. Thom, V. Vanovschi, C. F. Williams, Q. Wu and Z.-Q. You. 


 Intel X86 Linux Version

 Q-chem begins on Tue Nov 27 03:13:06 2012  

Host: 
0
 Using version located at /home/leeping/opt/qchem40/bin/qchem

 Parallel job on  1  processors

theFileMan(): MAXOPENFILES=974 MAX_SUB_FILE_NUM=16
Maximum size of a physical file is 2.0 GB, maximum size of a tmp-file is 32.0 GB


Total Memory Limit in MB = 2000
Mega-Array Size in MB = 62
Finally everything over in PARseQInput

--------------------------------------------------------------
User input:
--------------------------------------------------------------

$molecule
read
$end

$rem
jobtype sp
do_dma true
scf_convergence 8
exchange hf
correlation rimp2
basis aug-cc-pvtz
aux_basis rimp2-aug-cc-pvtz
symmetry off
sym_ignore true
$end
--------------------------------------------------------------
 ----------------------------------------------------
       Standard Nuclear Orientation (Angstroms)
    I     Atom         X            Y            Z
 ----------------------------------------------------
    1      C       0.000000     0.000000     0.757589
    2      H       0.894632     0.000000     1.374125
    3      H      -0.894632     0.000000     1.374125
    4      Cl      0.000000     1.475085    -0.214523
    5      Cl      0.000000    -1.475085    -0.214523
 ----------------------------------------------------
 Nuclear Repulsion Energy =   134.4296280629 hartrees
 There are       21 alpha and       21 beta electrons

 Q-Chem warning in module BasisType.C, line 1073:

 SAD: How to set up polarization functions for non-Pople basis?

 Requested basis set is aug-cc-pVTZ
 There are 64 shells and 192 basis functions

Total QAlloc Memory Limit   2000 MB
Mega-Array Size        61 MB
MEM_STATIC part        62 MB

finished with qalloc call

                       Distance Matrix (Angstroms)
             C (  1)   H (  2)   H (  3)   Cl(  4)
   H (  2)  1.086500
   H (  3)  1.086500  1.789264
   Cl(  4)  1.766601  2.345217  2.345217
   Cl(  5)  1.766601  2.345217  2.345217  2.950170
 
 Requested basis set is rimp2-aug-cc-pVTZ
 There are 130 shells and 492 basis functions
 Job number = 2, Threshold = 1.00E-11
Integral type ranges set in mkLRange.C for JobNum: 2  <1-61|1-61>
Symmetry turned off temporarily
 Using the largest function pair in Schwarz integrals
Total number of integrals generated =          854657
Symmetry turned back on
 A cutoff of  1.0D-11 yielded   2080 shell pairs
 There are     18844 function pairs (     25501 Cartesian)
 Job number = 11, Threshold = 1.00E-11
Integral type ranges set in mkLRange.C for JobNum: 11  <1-55|62-62>
Total number of integrals generated =          127505
 Smallest overlap matrix eigenvalue = 6.75E-05
 Multipole matrices computed through 2nd order

  Scale SEOQF with 1.000000e-01/1.000000e-01/1.000000e-01

 Standard Electronic Orientation quadrupole field applied
 Nucleus-field energy     =     0.0000000044 hartrees
 Guess from superposition of atomic densities
 Warning:  Energy on first SCF cycle will be non-variational
scfman initvdwdat 
 A restricted Hartree-Fock SCF calculation will be
 performed using Pulay DIIS extrapolation
 SCF converges when DIIS error is below 1.0E-08
Using Integral Screening
Finding J and K together
 ML is being used
 Job number = 22, Threshold = 1.00E-11
Integral type ranges set in mkLRange.C for JobNum: 22  <1-55|1-55>
Total number of integrals generated =       165199614
Fock build time:  7.66 s (CPU) 7.77 s (wall)
DIIS Errors:  Max 6.04E-01 RMS 2.49E-02

Current DIIS subspace size = 1
REM_GRID_RESTART_DIIS = 0

 ---------------------------------------
  Cycle       Energy         DIIS Error
 ---------------------------------------
    1    -958.5890309654      2.49E-02  00000
Ite = 2 IFIte = 1 Thresh = 1.00e-11
Finding J and K together
 Job number = 22, Threshold = 1.00E-11
Integral type ranges set in mkLRange.C for JobNum: 22  <1-55|1-55>
Total number of integrals generated =       325544722
Fock build time:  12.44 s (CPU) 12.44 s (wall)
DIIS Errors:  Max 5.35E-02 RMS 3.22E-03

Current DIIS subspace size = 2
REM_GRID_RESTART_DIIS = 0

    2    -958.0173663612      3.22E-03  00000
Ite = 3 IFIte = 2 Thresh = 1.00e-11
Using dP: JK
Finding J and K together
 ML is being used
 Job number = 22, Threshold = 1.00E-11
Integral type ranges set in mkLRange.C for JobNum: 22  <1-55|1-55>
Total number of integrals generated =       324521368
Fock build time:  12.62 s (CPU) 12.62 s (wall)
DIIS Errors:  Max 3.72E-02 RMS 2.19E-03

Current DIIS subspace size = 3
REM_GRID_RESTART_DIIS = 0

    3    -958.0572833591      2.19E-03  00000
Ite = 4 IFIte = 3 Thresh = 1.00e-11
Using dP: JK
Finding J and K together
 ML is being used
 Job number = 22, Threshold = 1.00E-11
Integral type ranges set in mkLRange.C for JobNum: 22  <1-55|1-55>
Total number of integrals generated =       323846573
Fock build time:  12.50 s (CPU) 12.50 s (wall)
DIIS Errors:  Max 4.37E-03 RMS 2.94E-04

Current DIIS subspace size = 4
REM_GRID_RESTART_DIIS = 0

    4    -958.0779423498      2.94E-04  00000
Ite = 5 IFIte = 4 Thresh = 1.00e-11
Using dP: JK
Finding J and K together
 ML is being used
 Job number = 22, Threshold = 1.00E-11
Integral type ranges set in mkLRange.C for JobNum: 22  <1-55|1-55>
Total number of integrals generated =       323127174
Fock build time:  12.34 s (CPU) 12.35 s (wall)
DIIS Errors:  Max 1.38E-03 RMS 7.54E-05

Current DIIS subspace size = 5
REM_GRID_RESTART_DIIS = 0

    5    -958.0789810686      7.54E-05  00000
Ite = 6 IFIte = 5 Thresh = 1.00e-11
Using dP: JK
Finding J and K together
 ML is being used
 Job number = 22, Threshold = 1.00E-11
Integral type ranges set in mkLRange.C for JobNum: 22  <1-55|1-55>
Total number of integrals generated =       321835891
Fock build time:  12.20 s (CPU) 12.20 s (wall)
DIIS Errors:  Max 4.19E-04 RMS 2.57E-05

Current DIIS subspace size = 6
REM_GRID_RESTART_DIIS = 0

    6    -958.0790662483      2.57E-05  00000
Ite = 7 IFIte = 6 Thresh = 1.00e-11
Using dP: JK
Finding J and K together
 ML is being used
 Job number = 22, Threshold = 1.00E-11
Integral type ranges set in mkLRange.C for JobNum: 22  <1-55|1-55>
Total number of integrals generated =       320462898
Fock build time:  12.08 s (CPU) 12.08 s (wall)
DIIS Errors:  Max 1.46E-04 RMS 8.51E-06

Current DIIS subspace size = 7
REM_GRID_RESTART_DIIS = 0

    7    -958.0790762804      8.51E-06  00000
Ite = 8 IFIte = 7 Thresh = 1.00e-11
Using dP: JK
Finding J and K together
 ML is being used
 Job number = 22, Threshold = 1.00E-11
Integral type ranges set in mkLRange.C for JobNum: 22  <1-55|1-55>
Total number of integrals generated =       318104792
Fock build time:  11.88 s (CPU) 11.89 s (wall)
DIIS Errors:  Max 4.30E-05 RMS 2.03E-06

Current DIIS subspace size = 8
REM_GRID_RESTART_DIIS = 0

    8    -958.0790773170      2.03E-06  00000
Ite = 9 IFIte = 8 Thresh = 1.00e-11
Using dP: JK
Finding J and K together
 ML is being used
 Job number = 22, Threshold = 1.00E-11
Integral type ranges set in mkLRange.C for JobNum: 22  <1-55|1-55>
Total number of integrals generated =       312970635
Fock build time:  11.53 s (CPU) 11.54 s (wall)
DIIS Errors:  Max 1.02E-05 RMS 6.02E-07

Current DIIS subspace size = 9
REM_GRID_RESTART_DIIS = 0

    9    -958.0790773874      6.02E-07  00000
Ite = 10 IFIte = 9 Thresh = 1.00e-11
Using dP: JK
Finding J and K together
 ML is being used
 Job number = 22, Threshold = 1.00E-11
Integral type ranges set in mkLRange.C for JobNum: 22  <1-55|1-55>
Total number of integrals generated =       306804798
Fock build time:  11.12 s (CPU) 11.12 s (wall)
DIIS Errors:  Max 2.90E-06 RMS 1.75E-07

Current DIIS subspace size = 10
REM_GRID_RESTART_DIIS = 0

   10    -958.0790773931      1.75E-07  00000
Ite = 11 IFIte = 10 Thresh = 1.00e-11
Using dP: JK
Finding J and K together
 ML is being used
 Job number = 22, Threshold = 1.00E-11
Integral type ranges set in mkLRange.C for JobNum: 22  <1-55|1-55>
Total number of integrals generated =       299007915
Fock build time:  10.64 s (CPU) 10.65 s (wall)
DIIS Errors:  Max 8.71E-07 RMS 5.09E-08

Current DIIS subspace size = 11
REM_GRID_RESTART_DIIS = 0

   11    -958.0790773937      5.09E-08  00000
Ite = 12 IFIte = 11 Thresh = 1.00e-11
Using dP: JK
Finding J and K together
 ML is being used
 Job number = 22, Threshold = 1.00E-11
Integral type ranges set in mkLRange.C for JobNum: 22  <1-55|1-55>
Total number of integrals generated =       287922956
Fock build time:  10.05 s (CPU) 10.06 s (wall)
DIIS Errors:  Max 2.18E-07 RMS 1.33E-08

Current DIIS subspace size = 12
REM_GRID_RESTART_DIIS = 0

   12    -958.0790773935      1.33E-08  00000
Ite = 13 IFIte = 12 Thresh = 1.00e-11
Using dP: JK
Finding J and K together
 ML is being used
 Job number = 22, Threshold = 1.00E-11
Integral type ranges set in mkLRange.C for JobNum: 22  <1-55|1-55>
Total number of integrals generated =       272400734
Fock build time:  9.27 s (CPU) 9.27 s (wall)
DIIS Errors:  Max 4.54E-08 RMS 3.04E-09

Current DIIS subspace size = 13
REM_GRID_RESTART_DIIS = 0

   13    -958.0790773935      3.04E-09  00000 Convergence criterion met
 ---------------------------------------
 SCF time:  CPU 146.57 s  wall 146.73 s
 SCF   energy in the final basis set = -958.0790773935
 Total energy in the final basis set = -958.0790773935
Symmetry turned off temporarily
 NBasAux in rimp2.F =          492

 RIMP2 job begins now...

 Form (P|Q)**(-1/2)...
 Entering AOints
 Job number = 66, Threshold = 1.00E-11
Integral type ranges set in mkLRange.C for JobNum: 66  <56-61|56-61>
Total number of integrals generated =          199765
 Job =            8
 
 Form (ia|P)...
 Entering first-index batching code with I1Strt =    1 batch size =   21
 Job number = 65, Threshold = 1.00E-11
Integral type ranges set in mkLRange.C for JobNum: 65  <1-55|56-61>
Total number of integrals generated =        16014628
 Form BiaQ = (ia|P)*(P|Q)**(-1/2)...
 Form (ia|jb)...
 Components of the RIMP2 correlation energy:
        aaaa    correlation energy =        -0.0811928060 au
        abab    correlation energy =        -0.4945500083 au
        bbbb    correlation energy =        -0.0811928060 au
        non-Brillouin singles      =         0.0000000000 au

 Total  RIMP2   correlation energy =        -0.6569356202 au
        RIMP2         total energy =      -958.7360130137 au

Symmetry turned back on
cdman primp2 timing      1.547 seconds
Symmetry turned off temporarily
 Analysis of SCF Wavefunction
 
 --------------------------------------------------------------
                    Orbital Energies (a.u.)
 --------------------------------------------------------------
 
 Alpha MOs
 -- Occupied --
*******-104.851 -11.366 -10.575 -10.575  -8.042  -8.042  -8.040
 -8.040  -8.040  -8.040  -1.194  -1.098  -0.896  -0.676  -0.618
 -0.587  -0.475  -0.471  -0.449  -0.446
 -- Virtual --
  0.029   0.043   0.064   0.067   0.113   0.114   0.121   0.133
  0.133   0.133   0.145   0.161   0.188   0.206   0.231   0.235
  0.267   0.270   0.273   0.322   0.324   0.328   0.354   0.361
  0.374   0.387   0.412   0.422   0.435   0.435   0.456   0.457
  0.464   0.492   0.503   0.517   0.519   0.554   0.555   0.695
  0.698   0.699   0.723   0.750   0.767   0.778   0.823   0.838
  0.842   0.849   0.873   0.893   0.897   0.898   0.914   0.938
  0.948   0.954   0.971   1.005   1.024   1.042   1.044   1.069
  1.086   1.090   1.099   1.115   1.117   1.132   1.145   1.202
  1.228   1.254   1.261   1.299   1.357   1.368   1.403   1.459
  1.495   1.509   1.543   1.553   1.567   1.616   1.687   1.717
  1.723   1.727   1.734   1.754   1.761   1.824   1.840   1.911
  1.925   1.933   1.937   1.944   2.025   2.101   2.139   2.209
  2.451   2.578   2.591   2.595   2.633   2.647   2.654   2.665
  2.700   2.709   2.733   2.884   2.936   2.937   2.973   3.024
  3.039   3.049   3.059   3.072   3.103   3.107   3.148   3.164
  3.184   3.184   3.188   3.203   3.253   3.290   3.303   3.408
  3.444   3.596   3.598   3.607   3.641   3.727   3.747   3.908
  3.919   3.977   4.056   4.091   4.186   4.192   4.249   4.347
  4.388   4.533   4.693   4.723   4.793   4.913   4.948   4.977
  5.174   5.264   5.322   5.351   5.735   5.786   5.924   6.568
  7.350   7.698  15.603
 --------------------------------------------------------------
 
          Ground-State Mulliken Net Atomic Charges

     Atom                 Charge (a.u.)
  ----------------------------------------
      1 C                    -0.161757
      2 H                     0.303286
      3 H                     0.303286
      4 Cl                   -0.222408
      5 Cl                   -0.222408
  ----------------------------------------
  Sum of atomic charges =     0.000000

 -----------------------------------------------------------------
                    Cartesian Multipole Moments
 -----------------------------------------------------------------
    Charge (ESU x 10^10)
                 0.0000
    Dipole Moment (Debye)
         X       0.0000      Y       0.0000      Z       1.8198
       Tot       1.8198
    Quadrupole Moments (Debye-Ang)
        XX     -31.5463     XY       0.0000     YY     -34.4645
        XZ       0.0000     YZ       0.0000     ZZ     -29.8773
    Octapole Moments (Debye-Ang^2)
       XXX       0.0000    XXY       0.0000    XYY       0.0000
       YYY       0.0000    XXZ       2.0635    XYZ       0.0000
       YYZ      -4.5601    XZZ       0.0000    YZZ       0.0000
       ZZZ       1.9870
    Hexadecapole Moments (Debye-Ang^3)
      XXXX     -41.2927   XXXY       0.0000   XXYY     -71.4962
      XYYY       0.0000   YYYY    -357.7161   XXXZ       0.0000
      XXYZ       0.0000   XYYZ       0.0000   YYYZ       0.0000
      XXZZ     -17.0123   XYZZ       0.0000   YYZZ     -71.2677
      XZZZ       0.0000   YZZZ       0.0000   ZZZZ     -71.7755
 -----------------------------------------------------------------
 No analytic derivatives required
Entering efpman

                      DISTRIBUTED MULTIPOLE ANALYSIS

                         COORDINATES AND CHARGES

    N         X              Y              Z           CHARGE
    0   0.0000000000   0.0000000000   0.7575889500  -5.1489389767
    1   0.8946320000  -0.0000000000   1.3741249500  -0.5974960485
    2  -0.8946320000  -0.0000000000   1.3741249500  -0.5974960610
    3   0.0000000000   1.4750850000  -0.2145230500 -17.0549927191
    4   0.0000000000  -1.4750850000  -0.2145230500 -17.0549927025
    5   0.4473160000   0.0000000000   1.0658569500  -0.4944352390
    6  -0.4473160000   0.0000000000   1.0658569500  -0.4944352423
    7   0.0000000000   0.7375425000   0.2715329500  -0.2786065524
    8   0.0000000000  -0.7375425000   0.2715329500  -0.2786064585
    9   0.0000000000   0.0000000000   0.7575889500   6.0000000000
   10   0.8946320000  -0.0000000000   1.3741249500   1.0000000000
   11  -0.8946320000  -0.0000000000   1.3741249500   1.0000000000
   12   0.0000000000   1.4750850000  -0.2145230500  17.0000000000
   13   0.0000000000  -1.4750850000  -0.2145230500  17.0000000000

                                 DIPOLES

    N        DX             DY             DZ
    0  -0.0000000404   0.0000000295  -0.5661660144
    1   0.0765577500  -0.0000000023   0.0331566386
    2  -0.0765577519  -0.0000000021   0.0331566393
    3  -0.0000000176  -0.2718049648   0.1083102093
    4   0.0000000068   0.2718051022   0.1083099605
    5  -0.1768606128   0.0000000248  -0.1282095693
    6   0.1768606148   0.0000000276  -0.1282095730
    7   0.0000000205   0.0764325891   0.0899624901
    8   0.0000000069  -0.0764327624   0.0899626203

                               QUADRUPOLES

    N        QXX            QXY            QXZ            QYY
    0  -0.8779867795   0.0000000140  -0.0000000281   0.6737058449
    1  -0.0130429283   0.0000000036  -0.0117711658   0.0090882196
    2  -0.0130429278  -0.0000000033   0.0117711645   0.0090882191
    3  -1.0201407213   0.0000000241  -0.0000000155   1.1173619212
    4  -1.0201407675   0.0000000170   0.0000000094   1.1173623377
    5  -0.1234639120   0.0000000172  -0.1118845430   0.1134093095
    6  -0.1234639098  -0.0000000145   0.1118845357   0.1134093044
    7   0.1092684118   0.0000000038  -0.0000000027  -0.1486558573
    8   0.1092684600   0.0000000112   0.0000000180  -0.1486557457

    N        QYZ            QZZ
    0  -0.0000001015   0.2042809346
    1  -0.0000000018   0.0039547087
    2  -0.0000000019   0.0039547087
    3  -1.2364911633  -0.0972211999
    4   1.2364909815  -0.0972215702
    5   0.0000000068   0.0100546025
    6   0.0000000059   0.0100546055
    7  -0.1449562917   0.0393874455
    8   0.1449563321   0.0393872857

                                OCTUPOLES

    N       OXXX           OXXY           OXXZ           OXYY
    0  -0.0000000075   0.0000000622  -1.2819389379   0.0000000119
    1  -0.0010990226  -0.0000000022   0.0038642021  -0.0046861965
    2   0.0010990227  -0.0000000019   0.0038642007   0.0046861960
    3  -0.0000000200  -0.0594570088   0.1029696147   0.0000000198
    4   0.0000000151   0.0594573582   0.1029698200  -0.0000000140
    5  -0.0453987034   0.0000000013  -0.1197645570   0.1079572901
    6   0.0453987018   0.0000000025  -0.1197645545  -0.1079572900
    7  -0.0000000201   0.2541243423   0.2010711341   0.0000000125
    8  -0.0000000224  -0.2541244869   0.2010709477   0.0000000098

    N       OXYZ           OXZZ           OYYY           OYYZ
    0   0.0000000074  -0.0000000044  -0.0000000647   0.8419985927
    1   0.0000000007   0.0057852191  -0.0000000002  -0.0014612609
    2  -0.0000000009  -0.0057852188  -0.0000000004  -0.0014612603
    3  -0.0000000126   0.0000000002   0.1069621702  -0.1591600008
    4  -0.0000000065  -0.0000000011  -0.1069628685  -0.1591601220
    5   0.0000000059  -0.0625585867  -0.0000000019   0.0104302085
    6  -0.0000000071   0.0625585882  -0.0000000024   0.0104302065
    7  -0.0000000192   0.0000000076   0.1873858874   0.1308150835
    8   0.0000000213   0.0000000126  -0.1873860047   0.1308152555

    N       OYZZ           OZZZ
    0   0.0000000025   0.4399403452
    1   0.0000000024  -0.0024029413
    2   0.0000000023  -0.0024029404
    3  -0.0475051613   0.0561903861
    4   0.0475055102   0.0561903020
    5   0.0000000007   0.1093343485
    6  -0.0000000002   0.1093343480
    7  -0.4415102297  -0.3318862176
    8   0.4415104915  -0.3318862032
 Total charge: 0.000000
Leaving efpman
 JobOver = TRUE
 Total job time:  148.47s(wall), 148.29s(cpu) 
 Tue Nov 27 03:15:34 2012

        *************************************************************
        *                                                           *
        *  Thank you very much for using Q-Chem.  Have a nice day.  *
        *                                                           *
        *************************************************************


*** MISSION COMPLETED -- STARFLEET OUT ***

