28
../min.c.0.o.0.log	Energy: -350357.7425549
N          1.35278       -0.19384       -0.25263
O          3.13954        0.79848        0.74796
C          3.54939       -1.31618       -0.27895
C          2.67726       -0.12939        0.09515
C          0.43210        0.75303        0.41228
C          0.66809        2.18402       -0.07635
C         -1.01719        0.31789        0.21958
C         -1.60609       -0.49136        1.19778
C         -2.92426       -0.91109        1.08145
C         -3.68699       -0.52406       -0.01813
C         -3.12614        0.30639       -0.97862
C         -1.80288        0.72909       -0.85609
C          0.77003       -1.33269       -0.95049
H          3.13945       -2.23809        0.11672
H          4.52674       -1.14637        0.14788
H          3.65199       -1.42381       -1.35292
H          1.52893       -1.84269       -1.52176
H          0.01943       -1.00098       -1.64805
H          0.31502       -2.04683       -0.27300
H          0.64946        0.72293        1.47259
H         -1.02579       -0.79524        2.05150
H         -3.35616       -1.53639        1.84245
H         -4.70710       -0.85069       -0.11134
H         -3.71029        0.62807       -1.82224
H         -1.39214        1.37095       -1.61266
H          0.59041        2.24509       -1.15651
H          1.65288        2.51617        0.20890
H         -0.06842        2.85305        0.35752
28
../min.c.0.o.15.log	Energy: -350358.8028437
N          1.35418       -0.19015       -0.27945
O          3.06186        0.70393        0.93002
C          3.59309       -1.22631       -0.36854
C          2.65412       -0.15202        0.15421
C          0.43557        0.77391        0.36326
C          0.67517        2.19277       -0.15791
C         -1.01352        0.32687        0.19834
C         -1.58959       -0.45338        1.20728
C         -2.90573       -0.88501        1.11525
C         -3.68083       -0.53557        0.01162
C         -3.13284        0.26648       -0.97994
C         -1.81103        0.70010       -0.88247
C          0.76998       -1.35329       -0.93473
H          3.29001       -2.21080       -0.02987
H          4.57930       -1.01102        0.01510
H          3.62590       -1.23465       -1.45181
H          1.53103       -1.89172       -1.47676
H          0.02727       -1.04549       -1.65148
H          0.30526       -2.03453       -0.23095
H          0.65866        0.77250        1.42161
H         -1.00021       -0.72642        2.06520
H         -3.32728       -1.48843        1.89936
H         -4.69992       -0.87028       -0.06209
H         -3.72651        0.55844       -1.82776
H         -1.40993        1.31997       -1.66249
H          0.57004        2.24058       -1.23636
H          1.67308        2.51413        0.09893
H         -0.03704        2.87998        0.28724
28
../min.c.0.o.30.log	Energy: -350358.2085305
N          1.35495       -0.20693       -0.28811
O          2.97554        0.58616        1.09865
C          3.65146       -1.09039       -0.45910
C          2.63165       -0.18471        0.21078
C          0.44043        0.77752        0.32901
C          0.69328        2.18302       -0.22129
C         -1.01028        0.33029        0.17952
C         -1.59287       -0.40203        1.22014
C         -2.90998       -0.83301        1.14239
C         -3.68227       -0.52392        0.02465
C         -3.12696        0.22909       -1.00070
C         -1.80226        0.65732       -0.92015
C          0.76607       -1.38630       -0.90930
H          3.50391       -2.12904       -0.18219
H          4.63117       -0.78211       -0.12528
H          3.59288       -1.01400       -1.53804
H          1.53931       -1.97536       -1.37880
H          0.06832       -1.09911       -1.67881
H          0.24959       -2.01312       -0.19241
H          0.65921        0.80000        1.38651
H         -1.00695       -0.63998        2.09076
H         -3.33610       -1.40053        1.95048
H         -4.70347       -0.85480       -0.03626
H         -3.71747        0.48712       -1.86169
H         -1.39477        1.23901       -1.72622
H          0.57872        2.21642       -1.29924
H          1.69919        2.49502        0.02186
H         -0.00214        2.88849        0.22121
28
../min.c.0.o.45.log	Energy: -350355.6148727
N          1.35450       -0.21916       -0.30544
O          2.88651        0.36642        1.27204
C          3.70604       -0.88881       -0.58459
C          2.60983       -0.24143        0.24501
C          0.44949        0.75480        0.34162
C          0.72145        2.17502       -0.15959
C         -1.00531        0.32501        0.18118
C         -1.59537       -0.42630        1.20390
C         -2.91593       -0.84411        1.11481
C         -3.68404       -0.50320        0.00340
C         -3.12020        0.26608       -1.00509
C         -1.79268        0.68292       -0.91217
C          0.75442       -1.37453       -0.96011
H          3.72224       -1.96738       -0.46141
H          4.65208       -0.49661       -0.24133
H          3.57133       -0.66837       -1.63592
H          1.53395       -1.97443       -1.41038
H          0.08792       -1.06248       -1.74781
H          0.20521       -1.99893       -0.26663
H          0.66143        0.74008        1.39901
H         -1.01244       -0.68907        2.06934
H         -3.34803       -1.42592        1.90947
H         -4.70791       -0.82396       -0.06635
H         -3.70709        0.54734       -1.86131
H         -1.37854        1.27919       -1.70436
H          0.60675        2.25135       -1.23528
H          1.73346        2.46414        0.09282
H          0.03991        2.87506        0.31173
28
../min.c.0.o.60.log	Energy: -350351.6913996
N          1.35269       -0.19740       -0.34806
O          2.81442       -0.12007        1.39429
C          3.74624       -0.53521       -0.76294
C          2.59483       -0.35080        0.21135
C          0.46177        0.65797        0.46492
C          0.75990        2.14078        0.23128
C         -0.99926        0.28712        0.23089
C         -1.60767       -0.61470        1.11132
C         -2.93451       -0.98838        0.94974
C         -3.69024       -0.45306       -0.09137
C         -3.10718        0.46282       -0.95620
C         -1.77389        0.83612       -0.78990
C          0.73589       -1.20613       -1.19988
H          3.47835       -1.04273       -1.67799
H          4.56806       -1.04707       -0.28103
H          4.07235        0.46724       -1.02108
H          1.50804       -1.76970       -1.70585
H          0.11665       -0.74597       -1.95384
H          0.13381       -1.90417       -0.63280
H          0.66573        0.44663        1.50160
H         -1.03373       -1.02958        1.92139
H         -3.38084       -1.68735        1.63450
H         -4.71886       -0.73979       -0.21706
H         -3.68398        0.89267       -1.75572
H         -1.34478        1.54891       -1.47017
H          0.65122        2.41620       -0.81188
H          1.77707        2.36256        0.53249
H          0.09141        2.75534        0.82441
28
../min.c.0.o.75.log	Energy: -350346.3837786
N         -1.35255       -0.08349        0.42974
O         -2.72847       -0.84448       -1.21529
C         -3.77935       -0.04700        0.77317
C         -2.57765       -0.44764       -0.06613
C         -0.47881        0.47209       -0.62583
C         -0.79062        1.94931       -0.87643
C          0.98825        0.20493       -0.30447
C          1.58635       -0.94730       -0.82717
C          2.91811       -1.24195       -0.57073
C          3.68918       -0.37773        0.20404
C          3.11542        0.78105        0.70878
C          1.77628        1.07222        0.45069
C         -0.71677       -0.76240        1.55154
H         -3.60715       -0.14688        1.83744
H         -4.65579       -0.60790        0.48009
H         -3.94660        1.00489        0.56470
H         -1.48635       -1.09466        2.23991
H         -0.06656       -0.08886        2.08588
H         -0.14863       -1.63094        1.24197
H         -0.68357       -0.06236       -1.53818
H          0.99999       -1.61742       -1.43129
H          3.35642       -2.13559       -0.97809
H          4.72204       -0.60244        0.40099
H          3.70350        1.46154        1.29855
H          1.35460        1.97622        0.85057
H         -0.68373        2.54482        0.02328
H         -1.81211        2.05730       -1.22601
H         -0.13269        2.34908       -1.64041
28
../min.c.0.o.90.log	Energy: -350340.5068336
N         -1.35185       -0.04275        0.47529
O         -2.65476       -1.22091       -0.97135
C         -3.79716        0.19096        0.57650
C         -2.56119       -0.47696       -0.00254
C         -0.49688        0.43487       -0.63251
C         -0.81432        1.89023       -0.98373
C          0.97585        0.19309       -0.31704
C          1.55752       -1.01090       -0.73016
C          2.89194       -1.28819       -0.46847
C          3.68310       -0.35398        0.19722
C          3.12652        0.85622        0.58758
C          1.78363        1.12833        0.32814
C         -0.69617       -0.63733        1.63293
H         -3.74595        0.26988        1.65671
H         -4.69188       -0.33690        0.27860
H         -3.82381        1.20136        0.18131
H         -1.45484       -0.87873        2.37149
H         -0.01632        0.06829        2.08084
H         -0.15951       -1.54849        1.39493
H         -0.71130       -0.16568       -1.50228
H          0.95416       -1.73589       -1.24801
H          3.31660       -2.22307       -0.78822
H          4.71823       -0.56512        0.39730
H          3.73005        1.59022        1.09126
H          1.37532        2.07189        0.64074
H         -0.70833        2.54436       -0.12586
H         -1.83721        1.97542       -1.33681
H         -0.16127        2.24099       -1.77564
28
../min.c.0.o.120.log	Energy: -350335.9636258
N         -1.34668       -0.09970        0.49146
O         -2.76525       -1.61466       -0.44178
C         -3.70041        0.51507        0.09112
C         -2.56085       -0.48443       -0.01564
C         -0.51124        0.50331       -0.56907
C         -0.81477        1.99506       -0.72638
C          0.96702        0.23317       -0.30700
C          1.54367       -0.91538       -0.86097
C          2.88159       -1.21804       -0.64934
C          3.68303       -0.35909        0.09990
C          3.13252        0.80125        0.62648
C          1.78327        1.09212        0.42744
C         -0.67063       -0.81868        1.56365
H         -4.12686        0.38028        1.08242
H         -4.46627        0.29805       -0.64106
H         -3.37719        1.54060        0.02057
H         -1.42293       -1.14097        2.27508
H          0.00133       -0.14824        2.07384
H         -0.12358       -1.69564        1.23763
H         -0.73776        0.01054       -1.50911
H          0.93336       -1.58361       -1.44281
H          3.30066       -2.11275       -1.07384
H          4.72149       -0.58789        0.25875
H          3.74299        1.47830        1.19688
H          1.37817        1.99231        0.85198
H         -0.79943        2.49837        0.23297
H         -1.78796        2.15421       -1.17139
H         -0.08647        2.46535       -1.37905
28
../min.c.0.o.135.log	Energy: -350340.4643487
N         -1.35074       -0.23007        0.41755
O         -3.06666       -1.59841       -0.18383
C         -3.54409        0.73917       -0.13809
C         -2.62530       -0.46618       -0.02868
C         -0.49584        0.49994       -0.54295
C         -0.77296        2.00422       -0.49254
C          0.97856        0.21663       -0.27283
C          1.60886       -0.79268       -1.00944
C          2.96597       -1.04879       -0.85876
C          3.71713       -0.31954        0.05871
C          3.10743        0.69136        0.78891
C          1.74943        0.95990        0.61983
C         -0.69355       -1.06099        1.41817
H         -3.27244        1.50466        0.57166
H         -4.54864        0.38830        0.05782
H         -3.54362        1.16311       -1.13652
H         -1.46320       -1.50393        2.03697
H         -0.06793       -0.44375        2.04327
H         -0.09836       -1.86539        1.00337
H         -0.70112        0.13758       -1.54505
H          1.03606       -1.36917       -1.71444
H          3.43140       -1.82282       -1.44235
H          4.76528       -0.52331        0.18436
H          3.67973        1.27295        1.48925
H          1.30389        1.75215        1.19234
H         -0.78998        2.35746        0.53137
H         -1.71478        2.26472       -0.94885
H         -0.00164        2.54692       -1.02937
28
../min.c.0.o.165.log	Energy: -350348.5726511
N          1.34759       -0.34801       -0.34681
O          3.30544       -1.47603       -0.07704
C          3.32834        0.83320        0.52396
C          2.65721       -0.44394        0.04696
C          0.51036        0.60057        0.41841
C          0.73216        2.03781       -0.05838
C         -0.96950        0.27841        0.23647
C         -1.61797       -0.46234        1.23114
C         -2.96815       -0.76852        1.13036
C         -3.69991       -0.34791        0.02197
C         -3.07292        0.39967       -0.96533
C         -1.71984        0.71791       -0.85315
C          0.67148       -1.38623       -1.11398
H          3.33811        1.56328       -0.27166
H          4.34799        0.56955        0.76809
H          2.87121        1.26410        1.40265
H          1.43358       -1.99312       -1.57965
H          0.06130       -0.94050       -1.88348
H          0.05474       -2.02841       -0.49910
H          0.73116        0.51368        1.47448
H         -1.06104       -0.80083        2.08732
H         -3.44724       -1.33720        1.90718
H         -4.74405       -0.59018       -0.06097
H         -3.62827        0.73994       -1.82088
H         -1.26101        1.29902       -1.63095
H          0.84089        2.06225       -1.13619
H          1.59623        2.51479        0.36904
H         -0.11784        2.65618        0.20753
28
../min.c.0.o.195.log	Energy: -350352.8286957
N          1.33722       -0.47305       -0.06863
O          3.46591       -1.25435       -0.26000
C          3.22467        0.90694        0.72230
C          2.69594       -0.36291        0.07660
C          0.49008        0.70687        0.20790
C          0.78455        1.83854       -0.77942
C         -0.98783        0.33998        0.11784
C         -1.69012        0.10517        1.30538
C         -3.04125       -0.21211        1.28746
C         -3.72067       -0.31047        0.07502
C         -3.04074       -0.06299       -1.10955
C         -1.68785        0.27436       -1.08595
C          0.67069       -1.73392       -0.36781
H          2.52686        1.46026        1.32341
H          3.64002        1.55631       -0.03809
H          4.05283        0.59599        1.34711
H          1.43539       -2.49127       -0.44802
H          0.13316       -1.69224       -1.30432
H         -0.01556       -2.00500        0.42087
H          0.65072        1.04862        1.22006
H         -1.17432        0.16840        2.24765
H         -3.56171       -0.38857        2.21179
H         -4.76512       -0.56470        0.05893
H         -3.55578       -0.12377       -2.05144
H         -1.18782        0.46147       -2.01749
H          0.74760        1.47039       -1.79719
H          1.75418        2.28631       -0.63589
H          0.04679        2.62714       -0.67571
28
../min.c.0.o.210.log	Energy: -350352.2888591
N         -1.34825        0.46070       -0.08866
O         -3.49803        1.20129       -0.18004
C         -3.16027       -0.93236        0.83374
C         -2.69781        0.31893        0.10612
C         -0.49537       -0.74207        0.02207
C         -0.74701       -1.70343       -1.14183
C          0.97991       -0.35457        0.04030
C          1.64941       -0.33635        1.26914
C          2.99637       -0.01032        1.34594
C          3.70476        0.31318        0.19057
C          3.05745        0.28311       -1.03695
C          1.70863       -0.06297       -1.11181
C         -0.68863        1.75818       -0.15945
H         -2.85966       -1.86712        0.39398
H         -4.23950       -0.89698        0.87288
H         -2.77874       -0.90035        1.84977
H         -1.45974        2.51356       -0.13448
H         -0.12959        1.87869       -1.07592
H         -0.02392        1.90105        0.68036
H         -0.69646       -1.24846        0.95617
H          1.11142       -0.57625        2.16958
H          3.49143       -0.00233        2.30054
H          4.74613        0.57372        0.24937
H          3.59467        0.52043       -1.93759
H          1.23559       -0.07558       -2.07516
H         -0.54577       -1.21864       -2.08793
H         -1.76772       -2.05356       -1.18807
H         -0.10080       -2.57133       -1.05953
28
../min.c.0.o.225.log	Energy: -350350.0633765
N          1.34690       -0.38941       -0.26283
O          3.52094       -0.94441       -0.64217
C          3.09881        0.44922        1.24830
C          2.69069       -0.30875       -0.00386
C          0.49258        0.73248        0.18195
C          0.77727        1.99661       -0.63238
C         -0.98100        0.34321        0.11900
C         -1.60981       -0.08016        1.29543
C         -2.94737       -0.45046        1.29891
C         -3.69529       -0.38176        0.12517
C         -3.09438        0.07324       -1.04043
C         -1.74570        0.42787       -1.04356
C          0.68993       -1.62476       -0.67012
H          2.86225        1.50374        1.23327
H          4.16736        0.33846        1.36235
H          2.60036        0.00365        2.10260
H          1.46366       -2.34322       -0.89951
H          0.08705       -1.49062       -1.55614
H          0.06745       -2.01519        0.12311
H          0.69455        0.94860        1.22276
H         -1.04427       -0.13354        2.20936
H         -3.40760       -0.78507        2.21140
H         -4.73258       -0.66422        0.12702
H         -3.66371        0.14418       -1.94981
H         -1.30128        0.76273       -1.96220
H          0.61219        1.82590       -1.68876
H          1.80696        2.31518       -0.52129
H          0.13732        2.81022       -0.30745
28
../min.c.0.o.255.log	Energy: -350340.2066220
N         -1.35898        0.10440        0.48961
O         -3.60068        0.28756        0.83552
C         -2.91351       -1.25289       -0.85241
C         -2.66729       -0.17778        0.19283
C         -0.49995        0.38747       -0.68011
C         -0.77478        1.78565       -1.23845
C          0.96742        0.14716       -0.33959
C          1.52794       -1.09811       -0.64572
C          2.85076       -1.38248       -0.33805
C          3.66351       -0.40198        0.22846
C          3.13439        0.85438        0.48982
C          1.79320        1.12247        0.21756
C         -0.71133       -0.33556        1.71866
H         -2.84106       -0.87906       -1.86816
H         -3.91553       -1.63322       -0.71281
H         -2.19305       -2.05413       -0.73641
H         -1.48202       -0.47347        2.46670
H         -0.02681        0.41136        2.08830
H         -0.17719       -1.27044        1.59257
H         -0.72763       -0.32003       -1.46877
H          0.91663       -1.85756       -1.10146
H          3.25500       -2.35406       -0.55978
H          4.69342       -0.61493        0.45145
H          3.75358        1.62331        0.91595
H          1.40114        2.09663        0.44479
H         -0.61342        2.55063       -0.48900
H         -1.80878        1.86593       -1.55939
H         -0.13820        1.98784       -2.09349
28
../min.c.0.o.270.log	Energy: -350335.8325398
N         -1.36175        0.07419        0.47559
O         -3.59395        0.49735        0.60447
C         -2.95629       -1.41793       -0.66808
C         -2.67204       -0.17522        0.15890
C         -0.49098        0.42275       -0.66746
C         -0.76067        1.85029       -1.14868
C          0.97290        0.16245       -0.32646
C          1.53078       -1.07094       -0.68162
C          2.85824       -1.36339       -0.40141
C          3.67619       -0.40288        0.19042
C          3.14271        0.83414        0.52500
C          1.80080        1.11359        0.26807
C         -0.72653       -0.43541        1.68405
H         -2.44615       -1.41459       -1.62308
H         -4.01933       -1.51500       -0.83642
H         -2.59738       -2.27997       -0.11255
H         -1.49862       -0.58430        2.43062
H         -0.02774        0.28262        2.08213
H         -0.21168       -1.37836        1.53090
H         -0.71304       -0.23675       -1.50042
H          0.91563       -1.81273       -1.16065
H          3.26268       -2.32332       -0.66895
H          4.70992       -0.62065        0.38995
H          3.76312        1.58442        0.98153
H          1.40929        2.07679        0.53834
H         -0.60383        2.57118       -0.35586
H         -1.79206        1.94909       -1.47000
H         -0.11758        2.09876       -1.98673
28
../min.c.0.o.285.log	Energy: -350337.0704406
N         -1.33428       -0.29973        0.26415
O         -3.20639        0.99371        0.28909
C         -3.51940       -1.30683       -0.26212
C         -2.68886       -0.11041        0.17126
C         -0.44986        0.38331       -0.70413
C         -0.79429        1.87079       -0.80887
C          1.01530        0.16600       -0.33936
C          1.73232       -0.82363       -1.02137
C          3.07231       -1.05677       -0.74373
C          3.72883       -0.29734        0.22227
C          3.03931        0.71117        0.88123
C          1.69271        0.94094        0.60089
C         -0.70866       -1.03407        1.35636
H         -3.32101       -1.46575       -1.31852
H         -4.57304       -1.11195       -0.12154
H         -3.23223       -2.21328        0.25852
H         -1.48246       -1.55496        1.91198
H         -0.20564       -0.37392        2.05129
H         -0.00458       -1.77327        1.00238
H         -0.59983       -0.07089       -1.67996
H          1.23490       -1.41784       -1.76778
H          3.60295       -1.82677       -1.27495
H          4.76598       -0.47826        0.44040
H          3.53925        1.31722        1.61544
H          1.17711        1.72409        1.12543
H         -0.82866        2.33568        0.16655
H         -1.75544        2.02450       -1.27295
H         -0.04444        2.37496       -1.41262
28
../min.c.0.o.300.log	Energy: -350341.8944794
N         -1.34381       -0.27445        0.24685
O         -3.22320        0.99386        0.05280
C         -3.50659       -1.36588       -0.16075
C         -2.69982       -0.11117        0.12881
C         -0.44621        0.49149       -0.64420
C         -0.74336        1.99080       -0.56693
C          1.01443        0.20512       -0.31028
C          1.70298       -0.73554       -1.08466
C          3.04345       -1.01219       -0.85111
C          3.72335       -0.36073        0.17520
C          3.06060        0.59519        0.93267
C          1.71687        0.87741        0.68878
C         -0.73265       -1.13644        1.25035
H         -3.39634       -1.55010       -1.22550
H         -4.55300       -1.20476        0.05793
H         -3.14698       -2.24251        0.36156
H         -1.51576       -1.64377        1.80140
H         -0.16352       -0.56046        1.96651
H         -0.08695       -1.88914        0.81807
H         -0.61483        0.15327       -1.66189
H          1.18624       -1.24914       -1.87646
H          3.55397       -1.73806       -1.45870
H          4.75926       -0.57944        0.36246
H          3.57962        1.12070        1.71418
H          1.22464        1.62225        1.28618
H         -0.81261        2.32028        0.46122
H         -1.67341        2.23809       -1.04820
H          0.05360        2.54463       -1.05630
28
../min.c.0.o.315.log	Energy: -350346.6861858
N         -1.34579       -0.24232        0.24008
O         -3.23307        0.96293       -0.16482
C         -3.48787       -1.40641       -0.03992
C         -2.70173       -0.11211        0.08575
C         -0.44394        0.58790       -0.58679
C         -0.71031        2.07837       -0.36378
C          1.01482        0.25122       -0.29426
C          1.66225       -0.67853       -1.11584
C          2.99362       -1.01246       -0.90856
C          3.70842       -0.42395        0.13238
C          3.08586        0.51790        0.93989
C          1.75145        0.85894        0.72136
C         -0.73965       -1.20040        1.15565
H         -3.37395       -1.71809       -1.07397
H         -4.53629       -1.22203        0.14911
H         -3.13837       -2.21290        0.58719
H         -1.50992       -1.64854        1.76732
H         -0.05738       -0.70423        1.82793
H         -0.20475       -1.99365        0.64672
H         -0.63329        0.34826       -1.62769
H          1.11864       -1.14173       -1.92073
H          3.47221       -1.72958       -1.55150
H          4.73814       -0.68543        0.29756
H          3.63097        0.99191        1.73644
H          1.29218        1.59297        1.35676
H         -0.77624        2.30219        0.69410
H         -1.63451        2.38685       -0.81760
H          0.10012        2.66398       -0.78897
28
../min.c.0.o.330.log	Energy: -350351.4652360
N         -1.34811       -0.26544        0.16335
O         -3.20001        0.95792       -0.33889
C         -3.54366       -1.36730        0.07285
C         -2.70120       -0.10407        0.01349
C         -0.43049        0.66021       -0.53484
C         -0.68625        2.10924       -0.11402
C          1.02234        0.28251       -0.26367
C          1.69645       -0.49702       -1.21050
C          3.02518       -0.85522       -1.02803
C          3.70936       -0.44577        0.11434
C          3.06071        0.34900        1.04940
C          1.72940        0.71663        0.85663
C         -0.75975       -1.33574        0.95825
H         -3.05041       -2.17859       -0.44760
H         -4.48888       -1.14567       -0.40066
H         -3.74420       -1.68818        1.08987
H         -1.54390       -1.91665        1.42005
H         -0.14706       -0.93632        1.75280
H         -0.15363       -2.00514        0.36167
H         -0.61134        0.56349       -1.59895
H          1.17606       -0.82269       -2.09422
H          3.52476       -1.45461       -1.76819
H          4.73656       -0.72783        0.26036
H          3.58274        0.68693        1.92669
H          1.25018        1.33521        1.59228
H         -0.76039        2.18615        0.96488
H         -1.60186        2.48535       -0.53174
H          0.13570        2.73849       -0.44293
28
../min.c.0.o.345.log	Energy: -350355.2804995
N          1.35149       -0.22426       -0.20397
O          3.18900        0.88698        0.54908
C          3.53788       -1.35735       -0.18274
C          2.69588       -0.11214        0.03978
C          0.42907        0.71347        0.47140
C          0.67086        2.15186        0.00796
C         -1.02108        0.30084        0.23961
C         -1.64889       -0.49782        1.20220
C         -2.97249       -0.89004        1.05470
C         -3.70024       -0.48902       -0.06331
C         -3.10024        0.33063       -1.00932
C         -1.77154        0.72526       -0.85591
C          0.76934       -1.33559       -0.94533
H          3.07396       -2.22141        0.27718
H          4.50214       -1.17825        0.26957
H          3.68895       -1.57279       -1.23495
H          1.54203       -1.86474       -1.47980
H          0.06613       -0.97592       -1.67918
H          0.25866       -2.04139       -0.30050
H          0.62835        0.65742        1.53484
H         -1.09556       -0.81355        2.06940
H         -3.43496       -1.50669        1.80471
H         -4.72424       -0.79493       -0.18093
H         -3.65706        0.66355       -1.86693
H         -1.33007        1.35880       -1.60206
H          0.65421        2.21492       -1.07473
H          1.62904        2.50535        0.34613
H         -0.10538        2.80317        0.39807
28
../min.c.0.o.360.log	Energy: -350357.7425549
N          1.35278       -0.19384       -0.25263
O          3.13954        0.79848        0.74796
C          3.54939       -1.31618       -0.27895
C          2.67726       -0.12939        0.09515
C          0.43210        0.75303        0.41228
C          0.66809        2.18402       -0.07635
C         -1.01719        0.31789        0.21958
C         -1.60609       -0.49136        1.19778
C         -2.92426       -0.91109        1.08145
C         -3.68699       -0.52406       -0.01813
C         -3.12614        0.30639       -0.97862
C         -1.80288        0.72909       -0.85609
C          0.77003       -1.33269       -0.95049
H          3.13945       -2.23809        0.11672
H          4.52674       -1.14637        0.14788
H          3.65199       -1.42381       -1.35292
H          1.52893       -1.84269       -1.52176
H          0.01943       -1.00098       -1.64805
H          0.31502       -2.04683       -0.27300
H          0.64946        0.72293        1.47259
H         -1.02579       -0.79524        2.05150
H         -3.35616       -1.53639        1.84245
H         -4.70710       -0.85069       -0.11134
H         -3.71029        0.62807       -1.82224
H         -1.39214        1.37095       -1.61266
H          0.59041        2.24509       -1.15651
H          1.65288        2.51617        0.20890
H         -0.06842        2.85305        0.35752
28
../min.c.15.o.0.log	Energy: -350359.8569923
N         -1.36007       -0.10686        0.29539
O         -3.09155        0.58505       -1.00908